IDmaster,Species,total number of individual collected for stem. *indicates average already calculated,individual,stem length (cm) ,D1 (mm) ,D2 (mm) ,D3 (mm) ,Stem fresh mass (g),Stem dry mass (g),average D (mm). Formula =AVERAGE(F2:H2),Stem volume - 1 mm^3.  Formula =PI()*(K2*0.5)^2*(E2*10),Stem specific density (SSD) (mg/mm^3). 
315,Polycarpaea tenuis Webb ex Christ,2,3,3,5.07,4.63,3.66,0.58,0.27,4.4533,467.2847,0.577806
315,Polycarpaea tenuis Webb ex Christ,2,,,,,,,,,,
316,Polygonum balansae Boiss.,,,,,,,,,,,
317,Polygonum maritimum L.,,,,,,,,,,,
318,Portulaca canariensis Danin & Reyes-Betancort,,,,,,,,,,,
319,Prunus lusitanica L.,10*,,,,,,,,,,0.547907
319,Prunus lusitanica L.,10*,,,,,,,,,,
320,Pterocephalus dumetorus (Brouss. ex Willd.) Coult.,3,3,10,19.1,20.41,20.86,34.78,15.51,20.1233,31804.5843,0.487666
320,Pterocephalus dumetorus (Brouss. ex Willd.) Coult.,3,1,10,19.86,22.87,19.08,34.06,15.26,20.6033,33339.9435,0.457709
320,Pterocephalus dumetorus (Brouss. ex Willd.) Coult.,3,2,10,18.85,17.9,18.7,25.09,11.66,18.4833,26831.8411,0.434558
320,Pterocephalus dumetorus (Brouss. ex Willd.) Coult.,3,,,,,,,,,,
321,Pterocephalus lasiospermus Link ex Buch,3,2,10,10.8,12.83,13.62,12.9,5.19,12.4167,12108.7671,0.428615
321,Pterocephalus lasiospermus Link ex Buch,3,3,8.96,11.06,10.8,11.36,9.06,3.64,11.0733,8628.8841,0.421839
321,Pterocephalus lasiospermus Link ex Buch,3,1,7.8,12.86,14.26,15.17,12.82,4.3,14.0967,12173.5528,0.353225
321,Pterocephalus lasiospermus Link ex Buch,3,,,,,,,,,,
322,Pterocephalus virens Webb & Berthel.,3,1,8.4,10.49,11.54,10.99,,3.42,11.0067,7992.466,0.427903
322,Pterocephalus virens Webb & Berthel.,3,3,10,6.67,5.93,6.85,3.71,1.34,6.4833,3301.3121,0.405899
322,Pterocephalus virens Webb & Berthel.,3,2,10,13.8,19.94,19.61,23.07,9.34,17.7833,24837.9769,0.376037
322,Pterocephalus virens Webb & Berthel.,3,,,,,,,,,,
323,Ranunculus cortusifolius Willd.,4,4,10,5.95,6.36,6.17,3.21,0.55,6.16,2980.2405,0.184549
323,Ranunculus cortusifolius Willd.,4,2,10,4.27,4.54,4.49,1.67,0.25,4.4333,1543.6565,0.161953
323,Ranunculus cortusifolius Willd.,4,3,10,4.92,5.21,5.59,2.4,0.33,5.24,2156.5149,0.153025
323,Ranunculus cortusifolius Willd.,4,1,10,7.48,7.62,7.3,,0.36,7.4667,4378.682,0.082217
323,Ranunculus cortusifolius Willd.,4,,,,,,,,,,
324,Reichardia crystallina (Sch. Bip.) Bramwell,3,3,3.89,4.47,6.81,6.22,1.4,0.5,5.8333,1039.6163,0.480947
324,Reichardia crystallina (Sch. Bip.) Bramwell,3,1,10,8.34,8.54,5.33,6.29,2.06,7.4033,4304.7158,0.478545
324,Reichardia crystallina (Sch. Bip.) Bramwell,3,2,5.12,8.8,6.99,6.64,1.89,0.7,7.4767,2247.8943,0.311403
324,Reichardia crystallina (Sch. Bip.) Bramwell,3,,,,,,,,,,
325,Reichardia ligulata (Vent.) G. Kunkel & Sunding,3,2,1.8,7.23,8.02,6.6,1.15,0.21,7.2833,749.9335,0.280025
325,Reichardia ligulata (Vent.) G. Kunkel & Sunding,3,3,9.3,14.98,16.47,12.02,14.02,3.97,14.49,15335.9118,0.25887
325,Reichardia ligulata (Vent.) G. Kunkel & Sunding,3,1,6.42,3.27,2.44,3.24,,0.07,2.9833,448.7748,0.15598
325,Reichardia ligulata (Vent.) G. Kunkel & Sunding,3,,,,,,,,,,
326,Reseda scoparia Brouss. ex Willd.,3,2,8.53,9.53,8.82,6.7,6.26,3.59,8.35,4671.0215,0.768569
326,Reseda scoparia Brouss. ex Willd.,3,1,10,10.82,10.5,9.76,11.26,5.68,10.36,8429.6471,0.673812
326,Reseda scoparia Brouss. ex Willd.,3,3,10,2.28,2.12,1.77,0.45,0.2,2.0567,332.2138,0.602022
326,Reseda scoparia Brouss. ex Willd.,3,,,,,,,,,,
327,Retama rhodorhizoides Webb & Berthel.,1,1,10,12.94,13.82,14.01,21.21,14.13,13.59,14505.3695,0.974122
327,Retama rhodorhizoides Webb & Berthel.,1,,,,,,,,,,
328,Rhamnus crenulata Aiton,4,3,10,38.52,36.57,39.83,134.24,89.47,38.3067,115249.3823,0.776317
328,Rhamnus crenulata Aiton,4,1,10,9.32,8.81,8.78,7.59,4.73,8.97,6319.3843,0.748491
328,Rhamnus crenulata Aiton,4,4,10,23.13,22.88,22.08,48.02,28.03,22.6967,40458.8971,0.692802
328,Rhamnus crenulata Aiton,4,2,10,12.02,11.61,11.98,12.56,7.27,11.87,11066.0166,0.656966
328,Rhamnus crenulata Aiton,4,,,,,,,,,,
329,Rhamnus glandulosa Aiton,10*,,,,,,,,,,0.607551
329,Rhamnus glandulosa Aiton,10*,,,,,,,,,,
330,Rhamnus integrifolia DC.,2,3,10,15.57,15.13,14.54,24.1,15.07,15.08,17860.4569,0.843763
330,Rhamnus integrifolia DC.,2,1,10,12.19,11.95,12.64,15.08,9.21,12.26,11805.1313,0.780169
330,Rhamnus integrifolia DC.,2,,,,,,,,,,
331,Rhus coriaria L.,3,2,10,26.04,25.26,25.09,46.34,23.43,25.4633,50923.7517,0.4601
331,Rhus coriaria L.,3,3,10,21.88,21.95,22.79,34.5,17.8,22.2067,38730.8144,0.459582
331,Rhus coriaria L.,3,1,10,25.05,24.65,25.01,41.79,20.94,24.9033,48708.51,0.429904
331,Rhus coriaria L.,3,,,,,,,,,,
332,Romulea columnae Sebast. & Mauri,,,10,2.31,1.75,1.5,,0.09,1.8533,269.7721,0.333615
332,Romulea columnae Sebast. & Mauri,,,10,2.13,1.55,1.78,,0.06,1.82,260.1553,0.230631
332,Romulea columnae Sebast. & Mauri,,,10,1.72,2.33,2.66,,0.09,2.2367,392.9094,0.22906
332,Romulea columnae Sebast. & Mauri,,,,,,,,,,,
333,Rubia fruticosa Aiton,2,3,10,9.56,12.89,12.54,10.66,5.67,11.6633,10684.0339,0.530698
333,Rubia fruticosa Aiton,2,,10,7.11,7.42,8.65,5.66,2.38,7.7267,4688.9352,0.507578
333,Rubia fruticosa Aiton,2,2,10,12.22,9.77,12.71,9.33,5.16,11.5667,10507.6675,0.49107
333,Rubia fruticosa Aiton,2,,,,,,,,,,
334,Rubia peregrina L.,1,1,10,3.68,2.91,2.43,0.97,0.29,3.0067,710.0034,0.408449
334,Rubia peregrina L.,1,,,,,,,,,,
335,Rubus bollei Focke,3,1,10,8.63,9.15,9.51,5.74,2.45,9.0967,6499.1183,0.376974
335,Rubus bollei Focke,3,3,10,8.77,8.96,9.08,4.27,1.23,8.9367,6272.5048,0.196094
335,Rubus bollei Focke,3,2,10,12.09,12.72,12.85,8.97,1.75,12.5533,12376.7895,0.141394
335,Rubus bollei Focke,3,,,,,,,,,,
336,Rubus palmensis A. Hansen,3,2,10,11.76,11.59,12.06,10.09,3.72,11.8033,10942.0634,0.339972
336,Rubus palmensis A. Hansen,3,3,10,9.27,9.39,9.95,5.01,1.45,9.5367,7143.0401,0.202995
336,Rubus palmensis A. Hansen,3,1,10,11.21,11.28,11.82,6.72,1.2,11.4367,10272.7994,0.116813
336,Rubus palmensis A. Hansen,3,,,,,,,,,,
337,Rumex bucephalophorus L.,3,3,10,1.04,1.05,0.9,0.1,0.01,0.9967,78.0171,0.140995
337,Rumex bucephalophorus L.,3,1,10,1.48,1.52,1.66,0.15,0.02,1.5533,189.5044,0.105538
337,Rumex bucephalophorus L.,3,2,2.3,2,2.06,2.1,0.07,0.01,2.0533,76.1617,0.07878
337,Rumex bucephalophorus L.,3,,,,,,,,,,
338,Rumex lunaria L.,2,3,10,23.19,24.64,18.49,38.1,11.55,22.1067,38382.7783,0.300916
338,Rumex lunaria L.,2,1,,,,,,49.55,,,
338,Rumex lunaria L.,2,,,,,,,,,,
339,Rumex maderensis Lowe,3,1,10,8.46,6.36,5.97,4.18,0.94,6.93,3771.8668,0.249213
339,Rumex maderensis Lowe,3,3,10,9,10.52,8.9,6.91,1.73,9.4733,7048.4808,0.245443
339,Rumex maderensis Lowe,3,2,10,7.05,8.15,7.34,5.17,0.86,7.5133,4433.5866,0.193974
339,Rumex maderensis Lowe,3,,,,,,,,,,
340,Ruppia maritima L.,,,,,,,,,,,
341,Ruta pinnata L. f.,3,1,10,28.8,31.09,27.49,75.18,46.59,29.1267,66630.2515,0.699232
341,Ruta pinnata L. f.,3,2,7.5,22.4,23.01,23,19.2,19.2,22.8033,30630.0578,0.626835
341,Ruta pinnata L. f.,3,3,10,12.84,15.45,12.61,15.96,8.92,13.6333,14598.0211,0.611042
341,Ruta pinnata L. f.,3,,,,,,,,,,
342,Salix canariensis C. Sm. ex Link,,,,,,,,,,,
343,Salsola divaricata Masson ex Link in Buch,2,3,8,11.04,13.51,12.9,11.85,7.93,12.4833,9791.3146,0.809901
343,Salsola divaricata Masson ex Link in Buch,2,,10,16.66,18.4,17.1,28.01,18.98,17.3867,23742.2863,0.799418
343,Salsola divaricata Masson ex Link in Buch,2,2,10,11.55,1007,13.07,13.61,8.81,343.8733,9287244.483,0.000949
343,Salsola divaricata Masson ex Link in Buch,2,,,,,,,,,,
344,Salsola vermiculata L.,,,,,,,,,,,
345,Salvia aegyptiaca L.,3,2,10,2.66,2.9,4,1.09,0.64,3.1867,797.5596,0.802448
345,Salvia aegyptiaca L.,3,1,10,3.17,3.48,2.45,0.92,0.51,3.0333,722.6536,0.705732
345,Salvia aegyptiaca L.,3,3,10,2.07,2.06,1.94,0.37,0.14,2.0233,321.5324,0.435415
345,Salvia aegyptiaca L.,3,,,,,,,,,,
346,Salvia broussonetii Benth.,3,1,10,16.28,14.03,15.48,20.49,8.43,15.2633,18297.3695,0.460722
346,Salvia broussonetii Benth.,3,3,10,17.18,17.31,17.4,24.97,7.21,17.2967,23497.1242,0.306846
346,Salvia broussonetii Benth.,3,2,10,13.36,14.31,13.72,17.29,,13.7967,14949.8978,0
346,Salvia broussonetii Benth.,3,,,,,,,,,,
347,Salvia canariensis L.,3,1,10,23.65,23.44,20.3,45.56,17,22.4633,39631.2969,0.428954
347,Salvia canariensis L.,3,3,10,12.7,12.67,14.58,14.75,5.56,13.3167,13927.7492,0.399203
347,Salvia canariensis L.,3,2,10,10.59,11.06,11.4,13.25,2.82,11.0167,9532.1375,0.295841
347,Salvia canariensis L.,3,,,,,,,,,,
348,Sambucus nigra L,2,2,10,26.59,24.11,24.2,48.56,20.31,24.9667,48956.5728,0.414857
348,Sambucus nigra L,2,1,10,27.84,28.69,27.22,46.47,18.39,27.9167,61209.2423,0.300445
348,Sambucus nigra L,2,,,,,,,,,,
349,Sanguisorba megacarpa (Lowe) Muñoz Garm. & C. Navarro,3,2,10,4.37,3.47,2.88,1.42,0.51,3.5733,1002.8522,0.50855
349,Sanguisorba megacarpa (Lowe) Muñoz Garm. & C. Navarro,3,3,10,3.1,3.78,3.34,1.04,0.25,3.4067,911.4842,0.274278
349,Sanguisorba megacarpa (Lowe) Muñoz Garm. & C. Navarro,3,1,10,1.7,1.71,1.45,0.26,0.05,1.62,206.1199,0.242577
349,Sanguisorba megacarpa (Lowe) Muñoz Garm. & C. Navarro,3,,,,,,,,,,
350,Schizogyne glaberrima DC.,,,,,,,,,,,
351,Schizogyne sericea (L. f.) DC.,2,2,10,13.83,15.08,14.14,18.57,11.61,14.35,16173.1153,0.717858
351,Schizogyne sericea (L. f.) DC.,2,3,4.8,5.2,5.43,5.76,2.94,0.8,5.4633,1125.2435,0.710957
351,Schizogyne sericea (L. f.) DC.,2,,10,10.44,10.72,10.82,9.13,4.44,10.66,8924.9192,0.497483
351,Schizogyne sericea (L. f.) DC.,2,,,,,,,,,,
352,Scilla dasyantha Webb & Berthel.,,,,,,,,,,,
353,Scilla haemorrhoidalis Webb & Berthel.,,,,,,,,,,,
354,Scilla latifolia Willd.,,,,,,,,,,,
355,Scrophularia arguta Sol. ex Aiton,3,1,5.3,1.61,2.3,2.44,0.27,0.03,2.1167,186.4965,0.160861
355,Scrophularia arguta Sol. ex Aiton,3,3,6,2.98,3.13,3.09,0.5,0.07,3.0667,443.174,0.157952
355,Scrophularia arguta Sol. ex Aiton,3,2,4.2,1.97,2.25,2.58,0.18,0.02,2.2667,169.4785,0.118009
355,Scrophularia arguta Sol. ex Aiton,3,,,,,,,,,,
356,Scrophularia glabrata Aiton,3,1,10,5.02,4.62,3.97,2.11,0.72,4.5367,1616.455,0.445419
356,Scrophularia glabrata Aiton,3,3,10,4.89,5.31,4.93,2.2,0.81,5.0433,1997.6768,0.405471
356,Scrophularia glabrata Aiton,3,2,8.2,6.7,5.59,5.63,2.42,0.83,5.9733,2297.9323,0.361194
356,Scrophularia glabrata Aiton,3,,,,,,,,,,
357,Scrophularia smithii Hornem.,3,2,10,9.52,9.19,9.11,7.86,2.07,9.2733,6754.0088,0.306485
357,Scrophularia smithii Hornem.,3,3,10,10.91,10.02,11.42,10.19,2.75,10.7833,9132.6317,0.301118
357,Scrophularia smithii Hornem.,3,1,10,5.18,5.8,5.45,3.07,0.61,5.4767,2355.7137,0.258945
357,Scrophularia smithii Hornem.,3,,,,,,,,,,
358,Semele androgyna (L.) Kunth,3,2,10,11,11.3,11.25,10.74,3.08,11.1833,9822.7348,0.313558
358,Semele androgyna (L.) Kunth,3,3,10,9.71,9.38,10.61,9.5,2,9.9,7697.6874,0.259818
358,Semele androgyna (L.) Kunth,3,1,10,11.76,11.59,12.02,,2.73,11.79,10917.3565,0.250061
358,Semele androgyna (L.) Kunth,3,,,,,,,,,,
359,Senecio palmensis (C. Sm. in Buch) Link,3,3,10,4.24,4.5,4.28,1.82,0.83,4.34,1479.3446,0.561059
359,Senecio palmensis (C. Sm. in Buch) Link,3,2,10,4.82,4.65,4.75,1.81,0.83,4.74,1764.6012,0.470361
359,Senecio palmensis (C. Sm. in Buch) Link,3,1,10,5.49,6.21,6.96,2.79,1.34,6.22,3038.5798,0.440995
359,Senecio palmensis (C. Sm. in Buch) Link,3,,,,,,,,,,
360,Senecio teneriffae Sch. Bip.,2,1,10,4.21,5.05,4.7,1.29,0.29,4.6533,1700.6628,0.170522
360,Senecio teneriffae Sch. Bip.,2,2,10,5.04,4.35,3.79,1.06,0.25,4.3933,1515.9267,0.164916
360,Senecio teneriffae Sch. Bip.,2,,,,,,,,,,
361,"Serapias mascaensis H. Kretzschmar, G. Kretzschmar & Kreutz",,,,,,,,,,,
362,Seseli webbii Coss.,1,3,8.3,5.84,5.58,5.81,2.2,0.41,5.7433,2150.285,0.190672
362,Seseli webbii Coss.,1,,,,,,,,,,
363,Sideritis brevicaulis Mend.-Heuer,2,1,5.89,3.13,2.86,3.02,0.56,0.24,3.0033,417.2653,0.575174
363,Sideritis brevicaulis Mend.-Heuer,2,2,10,7.73,6.49,5.54,3.91,1.61,6.5867,3407.3854,0.472503
363,Sideritis brevicaulis Mend.-Heuer,2,,,,,,,,,,
364,Sideritis canariensis L.,3,1,10,8.34,7.39,7.51,5.69,2.59,7.7467,4713.2407,0.549516
364,Sideritis canariensis L.,3,2,10,20.69,20.7,20.42,36.17,17.82,20.6033,33339.9435,0.534494
364,Sideritis canariensis L.,3,3,10,14.3,14.03,14.19,18.57,7.89,14.1733,15777.3436,0.500084
364,Sideritis canariensis L.,3,,,,,,,,,,
365,Sideritis cretica L.,3,2,10,10.98,10.01,6.59,9.75,4.97,9.1933,6637.9793,0.748722
365,Sideritis cretica L.,3,3,7.6,11.73,13.04,9.97,7.9,4.04,11.58,8004.249,0.504732
365,Sideritis cretica L.,3,1,8.1,9.57,7.5,7.48,3.96,1.81,8.1833,4260.2529,0.424857
365,Sideritis cretica L.,3,,,,,,,,,,
366,Sideritis cystosiphon Svent.,,,,,,,,,,,
367,Sideritis dendro-chahorra Bolle,2,3,10,9.76,11.93,11.29,11.03,5.58,10.9933,9491.8021,0.587876
367,Sideritis dendro-chahorra Bolle,2,2,10,11.71,12.82,12.35,13.02,6.41,12.2933,11869.4118,0.540044
367,Sideritis dendro-chahorra Bolle,2,,,,,,,,,,
368,Sideritis eriocephala Marrero Rodr. ex Negrín & P. Pérez,3,2,8.8,8.53,8.34,9.3,5.05,2.13,8.7233,5259.4156,0.404988
368,Sideritis eriocephala Marrero Rodr. ex Negrín & P. Pérez,3,1,10,7.61,5.9,5.83,2.62,1.04,6.4467,3264.0764,0.31862
368,Sideritis eriocephala Marrero Rodr. ex Negrín & P. Pérez,3,3,10,10.66,9.95,12.4,6.48,2.67,11.0033,9509.0782,0.280784
368,Sideritis eriocephala Marrero Rodr. ex Negrín & P. Pérez,3,,,,,,,,,,
369,Sideritis infernalis Bolle,3,1,10,10.43,10.73,10.91,10.1,5.68,10.69,8975.2239,0.632853
369,Sideritis infernalis Bolle,3,3,10,14.22,14.82,14.35,18.59,10.3,14.4633,16429.588,0.626918
369,Sideritis infernalis Bolle,3,2,10,7.95,7.16,7.8,5.16,2.83,7.6367,4580.3382,0.617858
369,Sideritis infernalis Bolle,3,,,,,,,,,,
370,Sideritis kuegleriana Bornm.,3,1,10,5.51,6.9,7.02,5.35,2.4,6.4767,3294.5263,0.728481
370,Sideritis kuegleriana Bornm.,3,3,10,7.87,6.91,6.7,4.71,2.59,7.16,4026.3908,0.643256
370,Sideritis kuegleriana Bornm.,3,2,10,4.53,5.29,4.91,2.21,0.87,4.91,1893.4457,0.45948
370,Sideritis kuegleriana Bornm.,3,,,,,,,,,,
371,Sideritis lotsyi (Pit.) Bornm.,,,,,,,,,,,
372,Sideritis macrostachys Poir.,3,1,10,9.33,7.78,7.17,,2.2,8.0933,5144.5185,0.42764
372,Sideritis macrostachys Poir.,3,2,10,7.38,9.05,6.4,3.5,1.27,7.61,4548.4057,0.279219
372,Sideritis macrostachys Poir.,3,3,10,7.97,8.53,7.91,3.75,1.36,8.1367,5199.7556,0.261551
372,Sideritis macrostachys Poir.,3,,,,,,,,,,
436,Sideritis mascaensis ,2,2,10,9.33,8.41,6.78,7.87,4.44,8.1733,5246.725,0.846242
436,Sideritis mascaensis ,2,1,10,6.03,6.12,6.11,3.43,1.77,6.0867,2909.7047,0.608309
436,Sideritis mascaensis ,2,,,,,,,,,,
373,Sideritis nervosa (Christ) Linding.,3,3,10,11.11,11.36,13.3,12.75,7.13,11.9233,11165.6819,0.638564
373,Sideritis nervosa (Christ) Linding.,3,2,10,5.6,10.18,7.98,5.46,2.69,7.92,4926.5199,0.546024
373,Sideritis nervosa (Christ) Linding.,3,1,10,11.71,9.28,9.66,8.28,4.29,10.2167,8198.0078,0.523298
373,Sideritis nervosa (Christ) Linding.,3,,,,,,,,,,
374,Sideritis oroteneriffae Negrín & P. Pérez,2,2,10,10.81,8.75,10.71,7.7,3.65,10.09,7995.9895,0.456479
374,Sideritis oroteneriffae Negrín & P. Pérez,2,3,10,7.05,7.19,7.58,4.57,1.68,7.2733,4154.8645,0.404345
374,Sideritis oroteneriffae Negrín & P. Pérez,2,,,,,,,,,,
437,Sideritis santosii,4,3,10,12.77,10.91,5.99,9.34,4.85,9.89,7682.1444,0.631334
437,Sideritis santosii,4,4,10,4.45,4.57,3.79,1.85,0.89,4.27,1432.0086,0.621505
437,Sideritis santosii,4,2,10,8.08,6.11,6.39,4.67,2.24,6.86,3696.0523,0.606052
437,Sideritis santosii,4,1,10,7.62,14.52,12.67,10.87,5.28,11.6033,10574.3923,0.499319
437,Sideritis santosii,4,,,,,,,,,,
375,Sideritis soluta Clos,2,2,10,16.93,16.79,18.43,26.51,15.34,17.3833,23733.1835,0.646352
375,Sideritis soluta Clos,2,1,10,17.52,19.8,19.18,33.71,17.2,18.8333,27857.6365,0.617425
375,Sideritis soluta Clos,2,,,,,,,,,,
376,Sideroxylon mirmulano R. Br. in Buch,,,,,,,,,,,
377,Silene berthelotiana Webb,3,2,7.8,3.3,3.49,3.5,0.88,0.33,3.43,720.7302,0.457869
377,Silene berthelotiana Webb,3,3,8,4.08,3.25,3.24,0.83,0.33,3.5233,779.9869,0.423084
377,Silene berthelotiana Webb,3,1,10,4.1,3.55,3.84,1.17,0.37,3.83,1152.0927,0.321155
377,Silene berthelotiana Webb,3,,,,,,,,,,
378,Silene lagunensis C. Sm. ex Christ,3,3,10,4.37,5.08,2.46,1.53,0.58,3.97,1237.8582,0.468551
378,Silene lagunensis C. Sm. ex Christ,3,1,10,6.42,5.03,5.73,3.67,1.04,5.7267,2575.6906,0.403775
378,Silene lagunensis C. Sm. ex Christ,3,2,10,4.67,7.62,6.41,3.16,0.91,6.2333,3051.6209,0.298202
378,Silene lagunensis C. Sm. ex Christ,3,,,,,,,,,,
379,Silene nocteolens Webb & Berthel.,,,,,,,,,,,
380,Smilax aspera L.,3,2,10,4.35,4.71,4.66,1.94,0.78,4.5733,1642.6899,0.474831
380,Smilax aspera L.,3,3,10,5.04,4.81,5.28,2.33,0.89,5.0433,1997.6768,0.445518
380,Smilax aspera L.,3,1,10,5.01,5.18,4.48,,0.65,4.89,1878.0519,0.346103
380,Smilax aspera L.,3,,,,,,,,,,
381,Smilax canariensis Willd.,3,2,10,8.79,8.8,8.48,6.92,2.85,8.69,5931.0206,0.480524
381,Smilax canariensis Willd.,3,3,10,15.56,15.59,15.44,21.61,8.5,15.53,18942.3036,0.448731
381,Smilax canariensis Willd.,3,1,10,8.35,8.42,8.43,6.42,2.12,8.4,5541.7694,0.382549
381,Smilax canariensis Willd.,3,,,,,,,,,,
382,Solanum vespertilio Aiton,2,2,10,6.74,6.18,6.14,2.59,1.76,6.3533,3170.2475,0.555162
382,Solanum vespertilio Aiton,2,1,10,9.1,8.7,8.4,6.67,3.2,8.7333,5990.3191,0.534195
382,Solanum vespertilio Aiton,1,,,,,,,,,,
383,Sonchus acaulis Dum. Cours.,,,,,,,,,,,
384,Sonchus canariensis (Sch. Bip.) Boulos,3,2,10,33.29,32.59,32.71,99.17,38.14,32.8633,84822.8978,0.449643
384,Sonchus canariensis (Sch. Bip.) Boulos,3,3,10,28.46,28.1,27.69,66.26,25.43,28.0833,61942.2806,0.410543
384,Sonchus canariensis (Sch. Bip.) Boulos,3,1,10,39.48,39.3,39.15,128.03,47.09,39.31,121365.7011,0.388001
384,Sonchus canariensis (Sch. Bip.) Boulos,3,,,,,,,,,,
385,Sonchus congestus Willd.,3,1,10,28.81,28.01,28.53,,25.12,28.45,63570.3237,0.395153
385,Sonchus congestus Willd.,3,,10,39.61,37.82,41.57,126.15,40.82,39.6667,123578.0377,0.330318
385,Sonchus congestus Willd.,3,4,10,15.25,15.45,17,22.66,5.97,15.9,19855.651,0.30067
385,Sonchus congestus Willd.,3,3,10,23.11,22.71,23.1,38.44,12.28,22.9733,41451.2765,0.296251
385,Sonchus congestus Willd.,3,,,,,,,,,,
386,Sonchus fauces-orci Knoche,3,3,2.5,10.96,8.89,8.12,,0.56,9.3233,1706.7594,0.328107
386,Sonchus fauces-orci Knoche,3,1,10,8.8,8.14,8,6.32,1.68,8.3133,5428.0054,0.309506
386,Sonchus fauces-orci Knoche,3,2,10,15.59,17.66,15.16,19.59,5.2,16.1367,20451.1407,0.254265
386,Sonchus fauces-orci Knoche,3,,,,,,,,,,
387,Sonchus gummifer Link,4,1,10,21.29,21.92,18.76,41.38,16.02,20.6567,33512.773,0.478027
387,Sonchus gummifer Link,4,2,8.6,13.39,13.03,15.43,13.55,3.2,13.95,13144.2784,0.243452
387,Sonchus gummifer Link,4,3,10,14.54,13.99,16.83,18.39,4.22,15.12,17955.333,0.235028
387,Sonchus gummifer Link,4,4,5.8,15.59,12.69,12.82,7.92,1.67,13.7,8549.8601,0.195325
387,Sonchus gummifer Link,4,,,,,,,,,,
388,Sonchus radicatus Aiton,2,2,10,8.14,12.48,11.38,15.11,3.35,10.6667,8936.0858,0.374884
388,Sonchus radicatus Aiton,2,1,10,19.5,17.24,14.27,,6.76,17.0033,22706.909,0.297707
388,Sonchus radicatus Aiton,2,,,,,,,,,,
389,Sonchus tectifolius Svent.,3,3,10,15.45,13.8,17.04,20.13,6.95,15.43,18699.1443,0.371675
389,Sonchus tectifolius Svent.,3,1,10,15.08,13.97,15.76,18.06,5.28,14.9367,17522.5481,0.301326
389,Sonchus tectifolius Svent.,3,2,4.2,13.95,13.9,16.5,6.91,1.11,14.7833,7209.1475,0.153971
389,Sonchus tectifolius Svent.,3,,,,,,,,,,
390,Sonchus tuberifer Svent.,,,,,,,,,,,
391,Spartocytisus filipes Webb & Berthel.,3,2,6.2,20.33,21.65,21,26.37,18.62,20.9933,21460.7242,0.867631
391,Spartocytisus filipes Webb & Berthel.,3,3,10,51.3,53.7,50.7,266.6,180.29,51.9,211555.6347,0.852211
391,Spartocytisus filipes Webb & Berthel.,3,1,10,13.46,13.92,15.56,19.59,13.66,14.3133,16090.5709,0.848944
391,Spartocytisus filipes Webb & Berthel.,3,,,,,,,,,,
392,Spartocytisus supranubius (L. f.) Christ ex G. Kunkel,3,1,10,29.62,30.45,29.73,55.11,50.78,29.9333,70372.0245,0.721594
392,Spartocytisus supranubius (L. f.) Christ ex G. Kunkel,3,2,10,16.14,16.63,17.04,24.92,15.07,16.6033,21651.1244,0.696038
392,Spartocytisus supranubius (L. f.) Christ ex G. Kunkel,3,3,10,23.33,22.63,22.94,46011,27.41,22.9667,41427.2224,0.661642
392,Spartocytisus supranubius (L. f.) Christ ex G. Kunkel,3,,,,,,,,,,
393,Stachys germanica L.,3,2,10,5.67,5.53,5.62,3,0.55,5.6067,2468.8764,0.222773
393,Stachys germanica L.,3,1,10,6.66,4.77,5.46,2.61,0.51,5.63,2489.4687,0.204863