IDmaster,Species,total number of individual collected for stem. *indicates average already calculated,individual,stem length (cm) ,D1 (mm) ,D2 (mm) ,D3 (mm) ,Stem fresh mass (g),Stem dry mass (g),average D (mm). Formula =AVERAGE(F2:H2),Stem volume - 1 mm^3.  Formula =PI()*(K2*0.5)^2*(E2*10),Stem specific density (SSD) (mg/mm^3). 
393,Stachys germanica L.,3,3,10,6.85,8.73,5.28,4.07,0.65,6.9533,3797.3094,0.171174
393,Stachys germanica L.,3,,,,,,,,,,
394,Stemmacantha cynaroides (C. Sm. in Buch) Dittrich,,,,,,,,,,,
395,Suaeda maritima (L.) Dumort.,,,,,,,,,,,
396,Suaeda mollis Delile,,,,,,,,,,,
397,Suaeda vera Forssk. ex J. F. Gmel.,3,1,10,6.97,6.63,7.9,2.79,2.98,7.1667,4033.8922,0.738741
397,Suaeda vera Forssk. ex J. F. Gmel.,3,3,10,3.43,3.61,4.95,1.23,0.69,3.9967,1254.5435,0.550001
397,Suaeda vera Forssk. ex J. F. Gmel.,3,2,9.2,8.63,6.61,10.12,4.81,2.09,8.4533,5163.3754,0.404774
397,Suaeda vera Forssk. ex J. F. Gmel.,3,,,,,,,,,,
398,Tamarix africana Poir.,,,,,,,,,,,
399,Tamarix canariensis Willd.,3,1,10,40.9,38.6,46.8,142.98,84.2,42.1,139204.7559,0.604864
399,Tamarix canariensis Willd.,3,3,10,41.22,44.9,40.43,130.61,77.37,42.1833,139756.389,0.553606
399,Tamarix canariensis Willd.,3,2,10,43.73,45,43.37,151.81,83.58,44.0333,152283.5552,0.548845
399,Tamarix canariensis Willd.,3,,,,,,,,,,
400,Tamus edulis Lowe,1,1,10,1.79,1.72,1.58,0.27,0.05,1.6967,226.0908,0.22115
400,Tamus edulis Lowe,1,,,,,,,,,,
401,Teline canariensis (L.) Webb & Berthel.,3,3,10,41.03,42.14,40.86,170.12,114.37,41.3433,134245.847,0.851944
401,Teline canariensis (L.) Webb & Berthel.,3,1,10,16.19,15.37,14.45,,13.34,15.3367,18473.6129,0.722111
401,Teline canariensis (L.) Webb & Berthel.,3,2,10,4.81,4.91,4.99,2.59,1.25,4.9033,1888.3075,0.661968
401,Teline canariensis (L.) Webb & Berthel.,3,,,,,,,,,,
402,Teline osyrioides (Svent.) P. E. Gibbs & Dingwall,2,1,10,29.36,29.81,28.79,93.53,64.87,29.32,67517.727,0.960785
402,Teline osyrioides (Svent.) P. E. Gibbs & Dingwall,2,2,10,10.88,10.75,10.53,10.61,6.09,10.72,9025.67,0.674742
402,Teline osyrioides (Svent.) P. E. Gibbs & Dingwall,2,,,,,,,,,,
447,Teline osyrioides ssp. sericea,1,1,10,8.26,7.96,8.48,5.9,2.9,8.2333,5324.0396,0.544699
447,Teline osyrioides ssp. sericea,1,,,,,,,,,,
403,Teline pallida (Poir.) G. Kunkel,1,1,10,10.9,9.32,11.4,9.01,5.98,10.54,8725.1139,0.685378
403,Teline pallida (Poir.) G. Kunkel,1,,,,,,,,,,
404,Teline salsoloides del Arco & Acebes,,,,,,,,,,,
405,Teline stenopetala (Webb & Berthel.) Webb & Berthel.,2,2,10,35.85,34.47,34.21,96.89,56.04,34.8433,95351.8827,0.587718
405,Teline stenopetala (Webb & Berthel.) Webb & Berthel.,2,1,6.92,4.84,5,4.47,1.4,0.71,4.77,1236.6099,0.57415
405,Teline stenopetala (Webb & Berthel.) Webb & Berthel.,2,,,,,,,,,,
406,Tetraena fontanesii (Webb & Berthel.) Beier & Thulin,3,3,10,8.56,9.84,7.04,8.1,4.36,8.48,5647.8296,0.771978
406,Tetraena fontanesii (Webb & Berthel.) Beier & Thulin,3,1,10,6.56,7.5,6.1,5.33,2.6,6.72,3546.7324,0.733069
406,Tetraena fontanesii (Webb & Berthel.) Beier & Thulin,3,2,10,15.53,14.06,14.64,18.52,9.65,14.7433,17071.8761,0.565257
406,Tetraena fontanesii (Webb & Berthel.) Beier & Thulin,3,,,,,,,,,,
407,Teucrium heterophyllum LHér.,3,1,10,8.39,8.49,8.79,7.21,4.11,8.5567,5750.414,0.714731
407,Teucrium heterophyllum LHér.,3,2,10,9.43,9.62,9.32,8.68,4.74,9.4567,7023.7015,0.674858
407,Teucrium heterophyllum LHér.,3,3,10,16.68,17.42,17.76,22.28,14,17.2867,23469.9626,0.596507
407,Teucrium heterophyllum LHér.,3,,,,,,,,,,
408,Tinguarra cervariaefolia (DC.) Parl.,3,1,10,9.17,9.45,9.91,8.62,1,9.51,7103.1488,0.140783
408,Tinguarra cervariaefolia (DC.) Parl.,3,3,10,6.57,6.27,5.79,3.37,0.39,6.21,3028.8173,0.128763
408,Tinguarra cervariaefolia (DC.) Parl.,3,2,10,11,9.14,9.05,6.26,0.78,9.73,7435.5922,0.104901
408,Tinguarra cervariaefolia (DC.) Parl.,3,,,,,,,,,,
409,Todaroa aurea Parl.,3,3,10,7.18,7.31,6.36,4.41,0.94,6.95,3793.6695,0.247781
409,Todaroa aurea Parl.,3,2,10,5.34,4.58,4.54,1.88,0.24,4.82,1824.6684,0.131531
409,Todaroa aurea Parl.,3,1,10,6.27,6.52,5.76,2.91,0.34,6.1833,3002.8608,0.113225
409,Todaroa aurea Parl.,3,,,,,,,,,,
410,Todaroa montana Webb ex Christ,3,2,10,31.36,31.08,31.4,75.72,9.97,31.28,76846.3722,0.129739
410,Todaroa montana Webb ex Christ,3,3,10,18.78,18.91,18.12,26.89,2.52,18.6033,27181.3747,0.092711
410,Todaroa montana Webb ex Christ,3,1,10,42.61,46.14,52.63,184.03,14.64,47.1267,174430.8618,0.08393
410,Todaroa montana Webb ex Christ,3,,,,,,,,,,
411,Tolpis crassiuscula Svent.,,,,,,,,,,,
412,Tolpis glabrescens Kämmer,,,,,,,,,,,
413,Tolpis laciniata (Sch. Bip. ex Webb & Berthel.) Webb,,,,,,,,,,,
414,Tolpis lagopoda C. Sm. in Buch,2,1,10,3.15,3.25,2.92,,0.27,3.1067,758.0174,0.356192
414,Tolpis lagopoda C. Sm. in Buch,2,2,10,6.05,5.34,4.48,2.4,0.57,5.29,2197.8661,0.259342
414,Tolpis lagopoda C. Sm. in Buch,2,,,,,,,,,,
415,Tolpis webbii Sch. Bip. ex Webb & Berthel.,,,,,,,,,,,
416,Traganum moquinii Webb ex Moq. in DC.,,,,,,,,,,,
417,Tricholaena teneriffae (L. f.) Link,2,1,10,1.56,1.3,1.41,0.24,0.12,1.4233,159.1121,0.754185
417,Tricholaena teneriffae (L. f.) Link,2,2,10,2.22,2.76,1.44,0.35,0.2,2.14,359.6809,0.556048
417,Tricholaena teneriffae (L. f.) Link,2,,,,,,,,,,
418,Trigonella stellata Forssk.,,,,,,,,,,,
419,Urtica morifolia Poir.,1,1,10,12.67,13.05,12.14,13.05,3.1,12.62,12508.5967,0.24783
419,Urtica morifolia Poir.,1,,,,,,,,,,
420,Urtica stachyoides Webb & Berthel.,3,2,10,7.64,9.7,9.56,7.67,0.93,8.9667,6314.6885,0.147276
420,Urtica stachyoides Webb & Berthel.,3,3,10,10.25,10.64,9.92,9.08,0.87,10.27,8283.8222,0.105024
420,Urtica stachyoides Webb & Berthel.,3,1,10,14.33,10.97,11.46,10.56,1.14,12.2533,11792.2961,0.096673
420,Urtica stachyoides Webb & Berthel.,3,,,,,,,,,,
421,Viburnum rigidum Vent.,10*,1,10,22.91,23.34,23.2,54.15,28.95,23.15,42091.2547,0.687791
421,Viburnum rigidum Vent.,10*,,,,,,,,,,0.626489
421,Viburnum rigidum Vent.,10*,,,,,,,,,,
422,Vicia cirrhosa C. Sm. ex Webb & Berthel.,3,3,10,1.25,1.31,1.2,,0.08,1.2533,123.3738,0.648436
422,Vicia cirrhosa C. Sm. ex Webb & Berthel.,3,2,10,1.29,1.11,0.97,0.14,0.05,1.1233,99.1076,0.504502
422,Vicia cirrhosa C. Sm. ex Webb & Berthel.,3,1,10,1.76,1.23,1.21,0.16,0.03,1.4,153.938,0.194884
422,Vicia cirrhosa C. Sm. ex Webb & Berthel.,3,,,,,,,,,,
423,Vicia scandens R. P. Murray,1,1,10,1.4,1.69,1.67,0.26,0.05,1.5867,197.7249,0.252877
423,Vicia scandens R. P. Murray,1,,,,,,,,,,
424,Vieria laevigata (Brouss. ex Willd.) Webb,3,2,10,6.39,5.89,6.4,3.02,1.45,6.2267,3045.0969,0.476175
424,Vieria laevigata (Brouss. ex Willd.) Webb,3,1,10,18.9,20.01,18.95,34.05,13.13,19.2867,29214.8883,0.449428
424,Vieria laevigata (Brouss. ex Willd.) Webb,3,3,10,10.39,10.99,11.93,11.09,4.09,11.1033,9682.7036,0.422403
424,Vieria laevigata (Brouss. ex Willd.) Webb,3,,,,,,,,,,
425,Viola anagae Gilli,3,2,7.1,1.71,2.27,2.76,0.35,0.1,2.2467,281.4657,0.355283
425,Viola anagae Gilli,3,1,7.3,2.83,2.86,2.92,0.56,0.15,2.87,472.255,0.317625
425,Viola anagae Gilli,3,3,10,1.99,1.87,2.13,0.38,0.07,1.9967,313.1129,0.223562
425,Viola anagae Gilli,3,,,,,,,,,,
448,Viola arvensis,3,1,10,1.54,1.38,1.32,0.24,0.03,1.4133,156.8842,0.191224
448,Viola arvensis,3,2,10,1.86,1.78,1.64,0.27,0.04,1.76,243.2849,0.164416
448,Viola arvensis,3,3,10,1.98,1.76,1.91,0.28,0.03,1.8833,278.5764,0.10769
448,Viola arvensis,3,,,,,,,,,,
426,Viola cheiranthifolia Humb. & Bonpl.,3,3,6.5,2.07,1.97,1.93,0.29,0.08,1.99,202.1666,0.395713
426,Viola cheiranthifolia Humb. & Bonpl.,3,1,10,3.08,2.74,2.39,0.56,0.13,2.7367,588.2117,0.221009
426,Viola cheiranthifolia Humb. & Bonpl.,3,2,5,2.7,1.88,1.88,0.2,0.04,2.1533,182.0885,0.219673
426,Viola cheiranthifolia Humb. & Bonpl.,3,,,,,,,,,,
427,Viola kitaibeliana Schult. in Roem. & Schult.,,,,,,,,,,,
428,Viola odorata L.,,,,,,,,,,,
429,Visnea mocanera L. f.,10*,,,,,,,,,,0.758722
429,Visnea mocanera L. f.,10*,,,,,,,,,,
430,Volutaria canariensis Wagenitz,2,2,10,6.11,2.06,1.76,1.05,0.34,3.31,860.4901,0.395124
430,Volutaria canariensis Wagenitz,2,3,10,3.1,3.92,5.79,2.79,0.56,4.27,1432.0086,0.391059
430,Volutaria canariensis Wagenitz,2,,,,,,,,,,
431,Wahlenbergia lobelioides (L. f.) Link,3,3,10,2.23,2,1.78,0.39,0.13,2.0033,315.2073,0.412427
431,Wahlenbergia lobelioides (L. f.) Link,3,2,10,1.66,1.45,1.3,0.23,0.05,1.47,169.7167,0.294609
431,Wahlenbergia lobelioides (L. f.) Link,3,1,10,2.28,2.2,1.82,0.41,0.1,2.1,346.3606,0.288716
431,Wahlenbergia lobelioides (L. f.) Link,3,,,,,,,,,,
432,Withania aristata (Aiton) Pauquy,1,2,10,29.64,31.3,30.42,65.17,36.63,30.4533,72838.2585,0.502895
432,Withania aristata (Aiton) Pauquy,1,,10,40.39,43.8,45.31,120.4,68.53,43.1667,146348.0394,0.468267
432,Withania aristata (Aiton) Pauquy,1,,,,,,,,,,