IDmaster,Species,total number of individual collected for stem. *indicates average already calculated,individual,stem length (cm) ,D1 (mm) ,D2 (mm) ,D3 (mm) ,Stem fresh mass (g),Stem dry mass (g),average D (mm). Formula =AVERAGE(F2:H2),Stem volume - 1 mm^3.  Formula =PI()*(K2*0.5)^2*(E2*10),Stem specific density (SSD) (mg/mm^3). 
234,"Lotus tenellus (Lowe) Sandral, A. Santos & D.D. Sokoloff",2,3,5.85,3.81,3.35,2.49,0.61,0.37,3.2167,475.3986,0.778294
234,"Lotus tenellus (Lowe) Sandral, A. Santos & D.D. Sokoloff",2,4,10,3.88,3.73,3.76,1.32,0.65,3.79,1128.1538,0.576163
234,"Lotus tenellus (Lowe) Sandral, A. Santos & D.D. Sokoloff",2,,10,1.22,1.3,1.29,0.19,0.03,1.27,126.6769,0.236823
234,"Lotus tenellus (Lowe) Sandral, A. Santos & D.D. Sokoloff",2,,,,,,,,,,
235,Luzula canariensis Poir.,3,1,10,3.31,2.6,2.55,0.78,0.16,2.82,624.58,0.256172
235,Luzula canariensis Poir.,3,2,10,3.08,3.02,2.87,0.86,0.16,2.99,702.1538,0.22787
235,Luzula canariensis Poir.,3,3,10,2.58,2.4,2.61,0.57,0.11,2.53,502.7255,0.218807
235,Luzula canariensis Poir.,3,,,,,,,,,,
236,Lycium intricatum Boiss.,3,2,10,6.7,5.75,5.51,3.17,2.12,5.9867,2814.881,0.75314
236,Lycium intricatum Boiss.,3,1,10,12.38,9.6,9.14,7.2,4.51,10.3733,8451.359,0.533642
236,Lycium intricatum Boiss.,3,3,10,10.9,13.3,12.14,9.7,5.98,12.1133,11524.3707,0.5189
236,Lycium intricatum Boiss.,3,,,,,,,,,,
237,Mairetis microsperma (Boiss.) I. M. Johnst.,3,3,4.39,1.44,1,0.85,0.05,0.03,1.0967,41.4671,0.602888
237,Mairetis microsperma (Boiss.) I. M. Johnst.,3,1,3.93,1.49,1.05,0.88,0.07,0.02,1.14,40.1136,0.498583
237,Mairetis microsperma (Boiss.) I. M. Johnst.,3,2,4.41,0.76,1.23,1.3,0.06,0.02,1.0967,41.656,0.384098
237,Mairetis microsperma (Boiss.) I. M. Johnst.,3,,,,,,,,,,
238,Marcetella moquiniana (Webb & Berthel.) Svent.,2,2,10,22.13,22.14,23.04,46.39,27.23,22.4367,39537.2586,0.688717
238,Marcetella moquiniana (Webb & Berthel.) Svent.,2,1,10,7.01,6.39,6.39,,1.18,6.5967,3417.7395,0.345257
238,Marcetella moquiniana (Webb & Berthel.) Svent.,2,,,,,,,,,,
239,Maytenus canariensis (Loes.) G. Kunkel & Sunding,4,2,10,19.93,19.8,21.67,45.47,25.1,20.4667,32899.1073,0.762939
239,Maytenus canariensis (Loes.) G. Kunkel & Sunding,4,3,10,17.98,18.16,18.39,30.47,16.81,18.1767,25948.865,0.647813
239,Maytenus canariensis (Loes.) G. Kunkel & Sunding,4,4,10,51.54,52.9,50.93,203.79,126.61,51.79,210659.8174,0.601016
239,Maytenus canariensis (Loes.) G. Kunkel & Sunding,4,1,10,32,31.39,32.11,80.48,46.63,31.8333,79589.1956,0.585884
239,Maytenus canariensis (Loes.) G. Kunkel & Sunding,4,,,,,,,,,,
240,Medicago laciniata (L.) Mill.,3,2,5.3,0.34,0.25,0.3,0.02,0,0.2967,3.6636,0.818876
240,Medicago laciniata (L.) Mill.,3,1,8.7,0.44,0.41,0.45,0.03,0.01,0.4333,12.8308,0.779375
240,Medicago laciniata (L.) Mill.,3,3,6.8,0.71,0.55,0.45,0.04,0.01,0.57,17.352,0.576304
240,Medicago laciniata (L.) Mill.,3,,,,,,,,,,
241,Medicago littoralis Rohde ex Loisel.,,,,,,,,,,,
242,Melica ciliata L.,4,2,10,1.57,1.63,1.66,0.25,0.13,1.62,206.1199,0.630701
242,Melica ciliata L.,4,4,10,1.49,1.44,1.58,0.22,0.1,1.5033,177.5009,0.563378
242,Melica ciliata L.,4,1,10,1.92,1.86,1.93,0.3,0.15,1.9033,284.5244,0.527195
242,Melica ciliata L.,4,3,10,2.41,2.2,2.21,0.41,0.15,2.2733,405.8973,0.369552
242,Melica ciliata L.,4,,,,,,,,,,
243,Melica minuta L.,3,3,10,1.63,1.78,1.33,0.25,0.14,1.58,196.0668,0.714042
243,Melica minuta L.,3,2,10,1.37,1.39,1.35,0.19,0.07,1.37,147.4114,0.474862
243,Melica minuta L.,3,1,10,1.23,1.19,1.13,0.11,0.05,1.1833,109.9776,0.454638
243,Melica minuta L.,3,,,,,,,,,,
244,Mercurialis canariensis Obbard & S.A. Harris,3,1,9.6,9.74,9.49,9.61,7.81,1.5,9.6133,6968.0156,0.215269
244,Mercurialis canariensis Obbard & S.A. Harris,3,2,7,7.17,7.04,7.07,2.96,0.54,7.0933,2766.2324,0.195211
244,Mercurialis canariensis Obbard & S.A. Harris,3,3,10,4.02,6.92,3.91,1.61,0.29,4.95,1924.4218,0.150695
244,Mercurialis canariensis Obbard & S.A. Harris,3,,,,,,,,,,
438,Micromeria densiflora,3,3,4.3,2,1.18,0.93,0.12,0.05,1.37,63.3869,0.788807
438,Micromeria densiflora,3,1,10,3.55,2.69,2.24,0.62,0.34,2.8267,627.5366,0.541801
438,Micromeria densiflora,3,2,4.3,5.93,5.07,6.66,0.12,0.05,5.8867,1170.3001,0.042724
438,Micromeria densiflora,3,,,,,,,,,,
245,Micromeria glomerata P. Pérez,,,,,,,,,,,
246,Micromeria hyssopifolia Webb & Berthel.,3,1,2.7,4.76,6.42,6.58,1.01,0.65,5.92,743.1852,0.874614
246,Micromeria hyssopifolia Webb & Berthel.,3,3,10,1.75,2.17,2.2,0.34,0.21,2.04,326.8513,0.642494
246,Micromeria hyssopifolia Webb & Berthel.,3,2,7,6.39,6.17,8.58,2.37,1.64,7.0467,2729.9543,0.600743
246,Micromeria hyssopifolia Webb & Berthel.,3,,,,,,,,,,
247,Micromeria lachnophylla Webb & Berthel.,3,1,10,1.95,2.2,1.75,0.32,0.18,1.9667,303.7746,0.592545
247,Micromeria lachnophylla Webb & Berthel.,3,2,10,2.24,0.77,0.31,0.19,0.05,1.1067,96.1886,0.519812
247,Micromeria lachnophylla Webb & Berthel.,3,3,10,2.19,2.26,1.55,0.28,0.14,2,314.1593,0.445634
247,Micromeria lachnophylla Webb & Berthel.,3,,,,,,,,,,
248,Micromeria lasiophylla Webb & Berthel.,1,1,6.02,1.46,1.6,1.66,0.14,0.08,1.5733,117.0383,0.683537
248,Micromeria lasiophylla Webb & Berthel.,1,,,,,,,,,,
249,Micromeria rivas-martinezii Wildpret,,,,,,,,,,,
250,Micromeria teneriffae (Poir.) Benth.,3,1,10,5.8,4.63,2.51,1.66,1.1,4.3133,1461.2211,0.752795
250,Micromeria teneriffae (Poir.) Benth.,3,2,3.8,6.05,6.76,7.98,1.52,0.98,6.93,1433.3094,0.683732
250,Micromeria teneriffae (Poir.) Benth.,3,3,3.1,5.06,5.79,5.72,0.71,0.44,5.5233,742.7695,0.592378
250,Micromeria teneriffae (Poir.) Benth.,3,,,,,,,,,,
251,Micromeria varia Benth.,2,1,8.8,5.22,3.96,2.91,,0.92,4.03,1122.4904,0.819606
251,Micromeria varia Benth.,2,2,10,4.72,3.28,2.78,0.97,0.53,3.5933,1014.1096,0.522626
251,Micromeria varia Benth.,2,,,,,,,,,,
252,Minuartia webbii McNeill & Bramwell,,,,,,,,,,,
253,Monanthes anagensis Praeger,3,2,7,2.46,2.83,1.91,0.43,0.13,2.4,316.6725,0.410519
253,Monanthes anagensis Praeger,3,3,6.1,2.29,2.08,2.63,0.32,0.09,2.3333,260.8395,0.34504
253,Monanthes anagensis Praeger,3,1,10,2.07,3.36,2.4,,0.15,2.61,535.0211,0.280363
253,Monanthes anagensis Praeger,3,,,,,,,,,,
254,Monanthes brachycaulos (Webb in Webb & Berthel.) Lowe,,,,,,,,,,,
255,Monanthes icterica (Webb ex Bolle) Christ,,,,,,,,,,,
256,Monanthes laxiflora (DC.) Bolle ex Börnm.,3,1,10,3.19,2.42,2.65,,0.22,2.7533,595.3981,0.369501
256,Monanthes laxiflora (DC.) Bolle ex Börnm.,3,3,6.3,2.61,2.32,1.56,0.3,0.05,2.1633,231.5673,0.21592
256,Monanthes laxiflora (DC.) Bolle ex Börnm.,3,2,,3.11,2.4,2.12,0.64,0.24,2.5433,0,
256,Monanthes laxiflora (DC.) Bolle ex Börnm.,3,,,,,,,,,,
257,Monanthes minima (Bolle) Christ,,,,,,,,,,,
258,Monanthes pallens (Webb ex Christ) Christ,4,2,2.5,3.22,1.35,1.69,0.05,0.04,2.0867,85.4941,0.467869
258,Monanthes pallens (Webb ex Christ) Christ,4,3,1.82,0.79,0.92,1.72,0.03,0.01,1.1433,18.6856,0.37462
258,Monanthes pallens (Webb ex Christ) Christ,4,5,1.45,4.45,2.98,3.1,0.17,0.05,3.51,140.3047,0.356367
258,Monanthes pallens (Webb ex Christ) Christ,4,4,2.19,3.37,1.98,3.28,0.16,0.03,2.8767,142.3354,0.21077
258,Monanthes pallens (Webb ex Christ) Christ,4,,,,,,,,,,
259,Monanthes polyphylla Haw.,1,2,2.48,0.9,0.63,1.46,0.02,0.01,0.9967,19.3482,0.413474
259,Monanthes polyphylla Haw.,1,,,,,,,,,,
260,Monanthes wildpretii A. Bañares & S. Scholz,,,,,,,,,,,
261,Myrica faya Aiton,10*,,,,,,,,,,0.635392
261,Myrica faya Aiton,10*,,,,,,,,,,
263,Navaea phoenicea (Vent.) Webb & Berthel.,,,,,,,,,,,
434,Neochamaelea pulverulenta,3,1,10,27.66,31.87,30.07,85.26,63.05,29.8667,70058.9124,0.899957
434,Neochamaelea pulverulenta,3,3,10,17.28,16.55,16.74,26.63,19.5,16.8567,22316.8698,0.873778
434,Neochamaelea pulverulenta,3,2,10,11.64,11.89,11.91,11.91,8.13,11.8133,10960.6119,0.741747
434,Neochamaelea pulverulenta,3,,,,,,,,,,
264,Nepeta teydea Webb & Berthel.,3,3,10,4.93,4.6,5.07,1.37,0.4,4.8667,1860.1719,0.215034
264,Nepeta teydea Webb & Berthel.,3,2,10,5.03,4.39,4.46,1.48,0.33,4.6267,1681.2268,0.196285
264,Nepeta teydea Webb & Berthel.,3,1,10,5.43,5.01,3.82,1.37,0.31,4.7533,1774.5426,0.174693
264,Nepeta teydea Webb & Berthel.,3,,,,,,,,,,
265,Ocotea foetens (Aiton) Baill.,10*,,,,,,,,,,0.511493
265,Ocotea foetens (Aiton) Baill.,10*,,,,,,,,,,
266,Olea cerasiformis Rivas-Mart. & del Arco ,2,1,5.2,5.1,5.1,5.1,1.27,0.95,5.1,1062.2667,0.894314
266,Olea cerasiformis Rivas-Mart. & del Arco ,2,2,10,35.22,33.27,32.43,87.95,58.71,33.64,88879.5517,0.660557
266,Olea cerasiformis Rivas-Mart. & del Arco ,2,,,,,,,,,,
267,Oligomeris linifolia (Vahl) J. F. Macbr.,3,2,7.4,1.03,0.94,0.65,0.07,0.02,0.8733,44.3284,0.451178
267,Oligomeris linifolia (Vahl) J. F. Macbr.,3,1,6.63,1.01,0.93,0.92,0.05,0.02,0.9533,47.3253,0.422607
267,Oligomeris linifolia (Vahl) J. F. Macbr.,3,3,10,1.31,1.1,0.71,0.11,0.03,1.04,84.9487,0.353154
267,Oligomeris linifolia (Vahl) J. F. Macbr.,3,,,,,,,,,,
268,Ononis angustissima Lam.,3,1,10,6.27,5.67,5.7,3.65,2.06,5.88,2715.467,0.758617
268,Ononis angustissima Lam.,3,2,10,9.03,8.02,6.97,6.8,3.45,8.0067,5034.9293,0.685213
268,Ononis angustissima Lam.,3,3,10,11.66,7.12,10.24,7.27,4.17,9.6733,7349.2359,0.567406
268,Ononis angustissima Lam.,3,,,,,,,,,,
269,Ononis hesperia (Maire) H. Förther & D. Podlech,,,,,,,,,,,
270,Orchis patens Desf.,2,1,10,3.99,2.95,2.52,1.08,0.1,3.1533,780.9615,0.128047
270,Orchis patens Desf.,2,2,10,6.17,5.92,4.31,2.64,0.21,5.4667,2347.1188,0.089471
270,Orchis patens Desf.,2,,,,,,,,,,
271,Orobanche berthelotii Webb & Berthel.,,,,,,,,,,,
272,Osyris lanceolata Hochst. & Steud. ex A. DC.,1,1,10,15.05,14.8,15.51,21.46,13.27,15.12,17955.333,0.739056
272,Osyris lanceolata Hochst. & Steud. ex A. DC.,1,,,,,,,,,,
273,Pancratium canariense Ker-Gawl.,,,,,,,,,,,
274,Parietaria filamentosa Webb & Berthel.,3,3,10,2.86,2.79,2.55,0.79,0.29,2.7333,586.7797,0.494223
274,Parietaria filamentosa Webb & Berthel.,3,1,10,5.88,5.62,5.74,3.42,1.26,5.7467,2593.7129,0.48579
274,Parietaria filamentosa Webb & Berthel.,3,2,10,2.21,2.12,1.97,0.5,0.13,2.1,346.3606,0.375331
274,Parietaria filamentosa Webb & Berthel.,3,,,,,,,,,,
275,Parolinia intermedia Svent. & Bramwell,3,3,10,12.82,12.12,12.11,15.07,10.63,12.35,11979.0891,0.88738
275,Parolinia intermedia Svent. & Bramwell,3,1,10,8.74,9.15,8.91,6.83,4.29,8.9333,6267.8264,0.684448
275,Parolinia intermedia Svent. & Bramwell,3,2,9,10.56,9.59,9.78,6.68,4.27,9.9767,7035.6352,0.60691
275,Parolinia intermedia Svent. & Bramwell,3,,,,,,,,,,
276,Paronychia canariensis (L. f.) Juss.,3,2,10,4.3,4.11,4.04,1.58,0.9,4.15,1352.652,0.66536
276,Paronychia canariensis (L. f.) Juss.,3,1,10,5.29,5.43,4.67,,1.37,5.13,2066.9245,0.662821
276,Paronychia canariensis (L. f.) Juss.,3,3,10,4.57,3.66,3.99,1.47,0.81,4.0733,1303.1361,0.621577
276,Paronychia canariensis (L. f.) Juss.,3,,,,,,,,,,
277,"Patellifolia patellaris (Moq.) A. J. Scott, Ford-Lloyd & J. T. Williams",2,2,10,3.7,3.9,3.9,1.57,0.24,3.8333,1154.099,0.207954
277,"Patellifolia patellaris (Moq.) A. J. Scott, Ford-Lloyd & J. T. Williams",2,1,10,2.34,2.74,2.22,0.79,0.04,2.4333,465.043,0.086014
277,"Patellifolia patellaris (Moq.) A. J. Scott, Ford-Lloyd & J. T. Williams",2,,,,,,,,,,
278,"Patellifolia procumbens (C. Sm. ex Hornem.) A. J. Scott, Ford-Lloyd & J. T. Williams",,,10,3.16,3.74,3.34,1.1,0.09,3.4133,915.0552,0.098355
278,"Patellifolia procumbens (C. Sm. ex Hornem.) A. J. Scott, Ford-Lloyd & J. T. Williams",,,,,,,,,,,
279,"Patellifolia webbiana (Moq.) A. J. Scott, Ford-Lloyd & J. T. Williams",3,2,10,5.96,5.8,3.56,2.64,0.65,5.1067,2048.1648,0.317357
279,"Patellifolia webbiana (Moq.) A. J. Scott, Ford-Lloyd & J. T. Williams",3,1,10,3.95,5.37,3.84,1.65,0.47,4.3867,1511.3295,0.310984
279,"Patellifolia webbiana (Moq.) A. J. Scott, Ford-Lloyd & J. T. Williams",3,3,10,9.78,9.98,11.75,8.16,2.51,10.5033,8664.5134,0.289687
279,"Patellifolia webbiana (Moq.) A. J. Scott, Ford-Lloyd & J. T. Williams",3,,,,,,,,,,
280,Pelletiera wildpretii Valdés,,,,,,,,,,,
281,Pericallis appendiculata (L. f.) B. Nord.,4,1,10,5.02,5.13,5.39,,1.19,5.18,2107.4118,0.564674
281,Pericallis appendiculata (L. f.) B. Nord.,4,4,10,3.61,3.34,4.48,1.32,0.45,3.81,1140.0918,0.394705
281,Pericallis appendiculata (L. f.) B. Nord.,4,2,10,4.38,3.82,6.18,1.78,0.58,4.7933,1804.5343,0.321413
281,Pericallis appendiculata (L. f.) B. Nord.,4,3,10,2.63,2.82,3.46,0.8,0.21,2.97,692.7919,0.303121
281,Pericallis appendiculata (L. f.) B. Nord.,4,,,,,,,,,,
282,Pericallis cruenta (LHér.) Bolle,3,3,10,6.77,6.93,5.14,3.65,0.63,6.28,3097.4847,0.203391
282,Pericallis cruenta (LHér.) Bolle,3,2,10,5.65,6.87,4.56,3.27,0.48,5.6933,2545.7931,0.188546
282,Pericallis cruenta (LHér.) Bolle,3,1,10,5.77,4.61,4.1,1.45,0.16,4.8267,1829.7194,0.087445
282,Pericallis cruenta (LHér.) Bolle,3,,,,,,,,,,
283,Pericallis echinata (L. f.) B. Nord.,3,3,10,6.76,6.41,8.32,4.35,1.17,7.1633,4030.1406,0.290312
283,Pericallis echinata (L. f.) B. Nord.,3,2,10,3.93,3.99,3.5,1.44,0.31,3.8067,1138.0978,0.272384
283,Pericallis echinata (L. f.) B. Nord.,3,1,10,4.55,5.16,4.26,1.86,0.23,4.6567,1703.1001,0.135048
283,Pericallis echinata (L. f.) B. Nord.,3,,,,,,,,,,
284,Pericallis lanata (LHér.) B. Nord.,3,2,10,1.83,1.77,0.89,0.28,0.1,1.4967,175.9301,0.568408
284,Pericallis lanata (LHér.) B. Nord.,3,1,10,2.3,2.14,2.34,0.56,0.21,2.26,401.15,0.523495
284,Pericallis lanata (LHér.) B. Nord.,3,3,10,2.37,2.23,2.32,0.55,0.19,2.3067,417.8877,0.454668
284,Pericallis lanata (LHér.) B. Nord.,3,,,,,,,,,,
285,Pericallis multiflora (LHér.) B. Nord.,,,,,,,,,,,
286,Pericallis tussilaginis (LHér.) D. Don in Sweet,2,3,10,0.83,2.12,2.41,0.45,0.06,1.7867,250.7131,0.239317
286,Pericallis tussilaginis (LHér.) D. Don in Sweet,2,2,10,3.66,3.83,3.98,1.3,0.19,3.8233,1148.0854,0.165493
286,Pericallis tussilaginis (LHér.) D. Don in Sweet,2,,,,,,,,,,
287,Periploca laevigata Aiton,3,3,10,12.26,12.55,11.41,12.96,7.33,12.0733,11448.386,0.640265
287,Periploca laevigata Aiton,3,2,10,13.91,14.41,14.44,17.84,10.1,14.2533,15955.9536,0.632993
287,Periploca laevigata Aiton,3,1,,,,,,14.37,,,
287,Periploca laevigata Aiton,3,,,,,,,,,,
288,Persea indica (L.) C. K. Spreng.,10*,,,,,,,,,,0.473267
288,Persea indica (L.) C. K. Spreng.,10*,,,,,,,,,,
289,Phagnalon umbelliforme DC.,1,1,6.4,4.38,3.44,3.58,0.82,0.4,3.8,725.8336,0.551091
289,Phagnalon umbelliforme DC.,1,,,,,,,,,,
290,Phelipanche lavandulacea (Rchb.),,,,,,,,,,,
291,Phoenix canariensis Chabaud,,,,,,,,,,,
292,Phyllis nobla L.,3,1,10,12.07,11.65,12.25,,5.56,11.99,11290.8919,0.492432
292,Phyllis nobla L.,3,3,10,12.68,11.99,11.5,11.4,3.51,12.0567,11416.7999,0.307442
292,Phyllis nobla L.,3,2,10,11.46,8.09,7.74,6.32,1.76,9.0967,6499.1183,0.270806
292,Phyllis nobla L.,3,,,,,,,,,,
293,Phyllis viscosa Webb ex Christ,3,2,10,15.79,13.02,8.49,12.65,4.93,12.4333,12141.2957,0.406052
293,Phyllis viscosa Webb ex Christ,3,3,10,20.3,17.83,19.04,27.74,11.56,19.0567,28522.2483,0.405298
293,Phyllis viscosa Webb ex Christ,3,1,10,24.66,23,24.78,44.49,16.25,24.1467,45793.544,0.354854
293,Phyllis viscosa Webb ex Christ,3,,,,,,,,,,
294,Picconia excelsa (Aiton) DC.,10*,,,,,,,,,,0.710464
294,Picconia excelsa (Aiton) DC.,10*,,,,,,,,,,
295,Pimpinella anagodendron Bolle,3,1,8,9.55,9.32,9.69,6.1,2.39,9.52,5694.476,0.419705
295,Pimpinella anagodendron Bolle,3,3,10,12.47,12.84,12.4,12.92,5.03,12.57,12409.6758,0.405329
295,Pimpinella anagodendron Bolle,3,2,10,14.2,14.23,13.63,15.17,5.66,14.02,15437.8177,0.366632
295,Pimpinella anagodendron Bolle,3,,,,,,,,,,
296,Pimpinella cumbrae Link,3,2,3.7,13.03,13.99,11.94,4.84,1.53,12.9867,4901.0258,0.31218
296,Pimpinella cumbrae Link,3,1,4.3,13.58,16.86,16,7.31,2.13,15.48,8092.8269,0.263196
296,Pimpinella cumbrae Link,3,3,8.1,25.59,17.64,11.47,18.33,5.54,18.2333,21149.8379,0.261941
296,Pimpinella cumbrae Link,3,,,,,,,,,,
297,Pimpinella dendrotragium Webb,3,3,10,5.18,4.35,4.22,2.01,0.68,4.5833,1649.8816,0.412151
297,Pimpinella dendrotragium Webb,3,1,10,5.81,5.64,5.9,3.05,0.97,5.7833,2626.9169,0.369254
297,Pimpinella dendrotragium Webb,3,2,10,5.46,5.31,5.3,2.79,0.79,5.3567,2253.6119,0.350548
297,Pimpinella dendrotragium Webb,3,,,,,,,,,,
298,Pimpinella rupicola Svent.,3,3,10,12.17,11.55,8.19,9.46,3.44,10.6367,8885.891,0.387131
298,Pimpinella rupicola Svent.,3,2,9.28,9.72,10.25,10.14,7.6,2.8,10.0367,7342.0419,0.381365
298,Pimpinella rupicola Svent.,3,1,10,5.53,5.7,5.6,2.73,0.88,5.61,2471.813,0.356014
298,Pimpinella rupicola Svent.,3,,,,,,,,,,
299,Pinus canariensis C. Sm. ex DC. in Buch,3,3,14.53,5.13,5.1,5.08,2.99,2.04,5.1033,2972.0997,0.686383
299,Pinus canariensis C. Sm. ex DC. in Buch,3,1,12.42,5.08,5.06,5.05,2.6,1.52,5.0633,2500.832,0.607798
299,Pinus canariensis C. Sm. ex DC. in Buch,3,1,14.26,5.1,5.07,5.1,2.64,1.7,5.09,2901.6496,0.585874
299,Pinus canariensis C. Sm. ex DC. in Buch,3,,,,,,,,,,
300,Pistacia atlantica Desf.,3,1,11.1,5.12,5.12,5.12,1.35,1.7,5.12,2285.3503,0.743868
300,Pistacia atlantica Desf.,3,2,6.1,5.5,5.5,5.5,2.78,0.84,5.5,1449.256,0.579608
300,Pistacia atlantica Desf.,3,3,10,42.98,43.15,43.26,154.39,14.33,43.13,146099.5229,0.098084
300,Pistacia atlantica Desf.,3,,,,,,,,,,
301,Pistacia lentiscus L.,1,1,10,13.3,13.8,14.1,18.85,9.8,13.7333,14812.9584,0.661583
301,Pistacia lentiscus L.,1,,,,,,,,,,
302,Plantago arborescens Poir.,3,1,10,4.33,4.85,5.01,,1.12,4.73,1757.1635,0.637391
302,Plantago arborescens Poir.,3,2,10,6.25,9.14,8.51,7.79,3.08,7.9667,4984.7476,0.617885
302,Plantago arborescens Poir.,3,3,10,9.9,9.37,9.92,8.09,3.36,9.73,7435.5922,0.451881
302,Plantago arborescens Poir.,3,,,,,,,,,,
303,Plantago asphodeloides Svent.,,,,,,,,,,,
304,Plantago webbii Barnéoud,4,4,10,8.24,7.86,5.94,4.89,2.24,7.3467,4239.0696,0.528418
304,Plantago webbii Barnéoud,4,1,10,6.55,6.25,6.27,3.49,1.61,6.3567,3173.5749,0.507314
304,Plantago webbii Barnéoud,4,2,10,9.16,8.45,5.51,4.82,2.36,7.7067,4664.6926,0.505928
304,Plantago webbii Barnéoud,4,3,10,8.51,8.6,9.01,6.3,2.97,8.7067,5953.7928,0.498842
304,Plantago webbii Barnéoud,4,,,,,,,,,,
305,Pleiomeris canariensis (Willd.) A. DC.,10*,,,,,,,,,,0.750094
305,Pleiomeris canariensis (Willd.) A. DC.,10*,,,,,,,,,,
306,Plocama pendula Aiton,2,,9.7,50.9,56.74,56.16,218.33,102.6,54.6,227115.5661,0.451752
306,Plocama pendula Aiton,2,3,10,13.47,13.95,12.66,15.09,6.13,13.36,14018.5404,0.437278
306,Plocama pendula Aiton,2,2,10,9.16,9.31,9.59,7.47,2.65,9.3533,6871.0436,0.385676
306,Plocama pendula Aiton,2,,,,,,,,,,
307,Poa bulbosa L.,,,,,,,,,,,
308,Poa pitardiana H. Scholz,,,,,,,,,,,
309,Polycarpaea aristata (Aiton) DC.,3,1,10,4.65,1.44,0.99,0.72,0.36,2.36,437.4354,0.822979
309,Polycarpaea aristata (Aiton) DC.,3,3,6.8,2.77,0.95,0.79,0.18,0.08,1.5033,120.7006,0.662797
309,Polycarpaea aristata (Aiton) DC.,3,2,10,3.53,1.01,0.74,0.38,0.16,1.76,243.2849,0.657665
309,Polycarpaea aristata (Aiton) DC.,3,,,,,,,,,,
310,Polycarpaea carnosa C. Sm. ex Buch,3,2,7.15,15.41,20.2,11.48,6.66,5.72,15.6967,13836.0077,0.413414
310,Polycarpaea carnosa C. Sm. ex Buch,3,1,5.6,13.33,15.24,23.24,7.89,4.47,17.27,13117.8477,0.340757
310,Polycarpaea carnosa C. Sm. ex Buch,3,3,5.57,10.98,13.4,32.68,8.87,4.19,19.02,15825.8156,0.264757
310,Polycarpaea carnosa C. Sm. ex Buch,3,,,,,,,,,,
311,Polycarpaea divaricata (Aiton) Poir.,3,1,10,1.83,2.37,2.16,,0.22,2.12,352.9894,0.623248
311,Polycarpaea divaricata (Aiton) Poir.,3,3,6.5,1.93,0.78,0.75,0.1,0.04,1.1533,67.9067,0.589043
311,Polycarpaea divaricata (Aiton) Poir.,3,2,10,2.77,1.31,1.1,0.37,0.11,1.7267,234.1569,0.469771
311,Polycarpaea divaricata (Aiton) Poir.,3,,,,,,,,,,
312,Polycarpaea filifolia Webb ex Christ,,,,,,,,,,,
313,Polycarpaea latifolia Willd.,3,3,10,3.12,2.18,1.55,0.74,0.18,2.2833,409.4761,0.439586
313,Polycarpaea latifolia Willd.,3,2,10,3.06,2.3,1.87,0.66,0.15,2.41,456.1671,0.328827
313,Polycarpaea latifolia Willd.,3,1,1.4,3,3.11,3.16,0.12,,3.09,104.9868,0
313,Polycarpaea latifolia Willd.,3,,,,,,,,,,
314,Polycarpaea nivea (Aiton) Webb,3,3,10,6.41,4.41,5.14,3.38,2,5.32,2222.8653,0.89974
314,Polycarpaea nivea (Aiton) Webb,3,1,9.7,3.43,5.7,4.9,2.23,1.49,4.6767,1666.2281,0.894235
314,Polycarpaea nivea (Aiton) Webb,3,2,10,3.49,2.99,2.73,1.07,0.58,3.07,740.2299,0.78354
314,Polycarpaea nivea (Aiton) Webb,3,,,,,,,,,,
315,Polycarpaea tenuis Webb ex Christ,2,2,1.9,2.75,3,2.74,,0.07,2.83,119.5133,0.585709