IDmaster,Species,total number of individual collected for stem. *indicates average already calculated,individual,stem length (cm) ,D1 (mm) ,D2 (mm) ,D3 (mm) ,Stem fresh mass (g),Stem dry mass (g),average D (mm). Formula =AVERAGE(F2:H2),Stem volume - 1 mm^3.  Formula =PI()*(K2*0.5)^2*(E2*10),Stem specific density (SSD) (mg/mm^3). 
69,Bufonia paniculata F. Dubois ex Delarbre,3,1,10,0.81,0.7,0.42,0.08,0.01,0.6433,32.5059,0.307637
69,Bufonia paniculata F. Dubois ex Delarbre,3,,,,,,,,,,
70,Bupleurum salicifolium R. Br. in Buch,2,,10,11.63,11.63,11.87,,8.23,11.71,10769.7016,0.764181
70,Bupleurum salicifolium R. Br. in Buch,2,3,10,26.36,27.56,25.99,59.2,36.88,26.6367,55724.943,0.661822
70,Bupleurum salicifolium R. Br. in Buch,2,2,10,15.71,16.36,17.94,21.85,12.26,16.67,21825.3432,0.561732
70,Bupleurum salicifolium R. Br. in Buch,2,,,,,,,,,,
71,Bupleurum semicompositum L.,,,,,,,,,,,
72,Bystropogon canariensis (L.) LHér.,2,2,10,7.02,7.2,6.83,3.96,1.82,7.0167,3866.7988,0.470674
72,Bystropogon canariensis (L.) LHér.,2,3,10,6.27,6.29,5.71,3.18,1.18,6.09,2912.8926,0.405096
72,Bystropogon canariensis (L.) LHér.,2,,,,,,,,,,
73,Bystropogon odoratissimus Bolle,1,1,10,22.04,23.59,27.86,29.72,19.13,24.4967,47130.6975,0.405893
73,Bystropogon odoratissimus Bolle,1,,,,,,,,,,
74,Bystropogon origanifolius LHér.,3,3,10,11.16,10.91,11.59,11.21,5.27,11.22,9887.2518,0.53301
74,Bystropogon origanifolius LHér.,3,2,10,4.51,4.77,4.99,1.9,0.93,4.7567,1777.0323,0.523344
74,Bystropogon origanifolius LHér.,3,1,10,5.44,4.52,4.75,2.01,0.94,4.9033,1888.3075,0.4978
74,Bystropogon origanifolius LHér.,3,,,,,,,,,,
75,Bystropogon plumosus (L. f.) LHér.,3,1,10,10.4,10.1,10.26,10.21,5.2,10.2533,8256.9572,0.629772
75,Bystropogon plumosus (L. f.) LHér.,3,2,10,15.15,15.31,15.49,21.89,10.81,15.3167,18425.4627,0.586688
75,Bystropogon plumosus (L. f.) LHér.,3,3,9.55,13.9,12.61,13.12,11.09,5.78,13.21,13088.7716,0.4416
75,Bystropogon plumosus (L. f.) LHér.,3,,,,,,,,,,
76,Campanula dichotoma L.,3,2,10,1.71,1.66,1.67,0.3,0.12,1.68,221.6708,0.541343
76,Campanula dichotoma L.,3,3,10,1.32,1.2,1.23,0.15,0.04,1.25,122.7185,0.325949
76,Campanula dichotoma L.,3,1,10,1.56,1.55,1.28,0.2,0.05,1.4633,168.1808,0.297299
76,Campanula dichotoma L.,3,,,,,,,,,,
77,Campylanthus salsoloides (L. f.) Roth,3,3,10,9.95,10.44,8.58,11.21,6.45,9.6567,7323.933,0.880674
77,Campylanthus salsoloides (L. f.) Roth,3,1,10,12.15,12.4,12.76,14.52,8,12.4367,12147.8066,0.658555
77,Campylanthus salsoloides (L. f.) Roth,3,2,10,11.53,10.89,11.16,11.73,3.83,11.1933,9840.3094,0.389215
77,Campylanthus salsoloides (L. f.) Roth,3,,,,,,,,,,
78,Canarina canariensis (L.) Vatke,2,3,10,9.96,10.23,10,5.4,0.73,10.0633,7953.7804,0.09178
78,Canarina canariensis (L.) Vatke,2,,10,15.75,14.85,16.78,,1.43,15.7933,19590.1375,0.072996
78,Canarina canariensis (L.) Vatke,2,2,10,15.15,15.19,15.66,12.74,0.97,15.3333,18465.5835,0.05253
78,Canarina canariensis (L.) Vatke,2,,,,,,,,,,
79,Carduus clavulatus Link,3,2,10,7.06,6.96,7.86,5,1.35,7.2933,4177.7458,0.323141
79,Carduus clavulatus Link,3,3,10,21.26,13.65,12.86,17.55,5.19,15.9233,19913.9703,0.260621
79,Carduus clavulatus Link,3,1,10,23.76,20.47,18.43,37.29,6.46,20.8867,34263.2183,0.18854
79,Carduus clavulatus Link,3,,,,,,,,,,
80,Carduus volutarioides Reyes-Betancort,3,3,10,5.68,5.44,5.09,2.23,0.83,5.4033,2293.0494,0.361963
80,Carduus volutarioides Reyes-Betancort,3,2,10,4.58,4.37,4.14,1.03,0.44,4.3633,1495.2943,0.294256
80,Carduus volutarioides Reyes-Betancort,3,1,10,3.4,3.38,3.58,0.5,0.25,3.4533,936.6275,0.266915
80,Carduus volutarioides Reyes-Betancort,3,,,,,,,,,,
81,Carex canariensis Kük.,3,1,10,3.01,2.8,2.47,0.67,0.15,2.76,598.2849,0.250717
81,Carex canariensis Kük.,3,3,10,2.3,2.49,2.82,0.77,0.12,2.5367,505.3784,0.237446
81,Carex canariensis Kük.,3,2,10,2.3,2.19,2.22,0.58,0.08,2.2367,392.9094,0.203609
81,Carex canariensis Kük.,3,,,,,,,,,,
82,Carex paniculata L.,3,2,10,4.86,4.27,4.39,1.6,0.36,4.5067,1595.1472,0.225685
82,Carex paniculata L.,3,1,10,5.25,4.85,4.74,1.82,0.38,4.9467,1921.8309,0.197728
82,Carex paniculata L.,3,3,10,4.68,3.88,3.87,1.38,0.23,4.1433,1348.3096,0.170584
82,Carex paniculata L.,3,,,,,,,,,,
83,Carex perraudieriana Gay ex Bornm.,3,2,10,4.76,4.82,4.58,1.73,0.23,4.72,1749.7414,0.131448
83,Carex perraudieriana Gay ex Bornm.,3,1,10,4.9,5.46,5.38,2.07,0.26,5.2467,2162.0057,0.120259
83,Carex perraudieriana Gay ex Bornm.,3,3,10,4.97,4.1,3.83,1.37,0.17,4.3,1452.2012,0.117064
83,Carex perraudieriana Gay ex Bornm.,3,,,,,,,,,,
84,Carlina salicifolia (L. f.) Cav.,3,1,10,15.67,15.01,15.73,,11.43,15.47,18796.2195,0.608101
84,Carlina salicifolia (L. f.) Cav.,3,2,4.2,21.96,21.2,22.48,16.1,8.31,21.88,15791.879,0.52622
84,Carlina salicifolia (L. f.) Cav.,3,3,10,9.02,10,12.12,8,4.19,10.38,8462.2254,0.495142
84,Carlina salicifolia (L. f.) Cav.,3,,,,,,,,,,
85,Carlina xeranthemoides L. f.,3,1,10,8.77,9.02,9.44,6.44,3.33,9.0767,6470.5717,0.514638
85,Carlina xeranthemoides L. f.,3,3,10,8.01,8.04,7.94,4.55,2.06,7.9967,5022.3603,0.410166
85,Carlina xeranthemoides L. f.,3,2,10,7.96,9.92,10.45,6.1,2.77,9.4433,7003.9094,0.395493
85,Carlina xeranthemoides L. f.,3,,,,,,,,,,
86,Ceballosia fruticosa (L. f.) G. Kunkel,2,2,10,17.88,17.32,16.29,25.36,16.38,17.1633,23136.26,0.70798
86,Ceballosia fruticosa (L. f.) G. Kunkel,2,3,10,16.56,14.09,13.44,17.57,10.61,14.6967,16963.9729,0.625443
86,Ceballosia fruticosa (L. f.) G. Kunkel,2,,10,25.68,26.5,28.69,61.04,33.65,26.9567,57071.8904,0.589607
86,Ceballosia fruticosa (L. f.) G. Kunkel,2,,,,,,,,,,
87,Cedronella canariensis (L.) Webb & Berthel.,3,3,10,5.49,6.18,5.89,2.55,0.58,5.8533,2690.8928,0.215542
87,Cedronella canariensis (L.) Webb & Berthel.,3,1,10,8.53,8.57,8.41,6.2,0.94,8.5033,5678.9532,0.165523
87,Cedronella canariensis (L.) Webb & Berthel.,3,2,10,7.52,6.93,6.69,3.52,0.62,7.0467,3899.9347,0.158977
87,Cedronella canariensis (L.) Webb & Berthel.,3,,,,,,,,,,
88,Cerastium sventenii Jalas,,,,,,,,,,,
89,Ceropegia dichotoma Haw.,,,,,,,,,,,
90,Ceropegia fusca Bolle,5,2,10,6.17,6.56,5.88,3.39,0.44,6.2033,3022.3177,0.145584
90,Ceropegia fusca Bolle,5,3,10,14.55,13.99,13.65,18.86,2.15,14.0633,15533.3963,0.138411
90,Ceropegia fusca Bolle,5,5,10,13.68,13.39,13.56,15.33,1.89,13.5433,14405.9206,0.131196
90,Ceropegia fusca Bolle,5,4,10,16.64,17.04,18.12,24.2,2.95,17.2667,23415.6863,0.125984
90,Ceropegia fusca Bolle,5,1,10,9.06,7.94,8.52,6.12,0.65,8.5067,5683.4064,0.114368
91,Chamaecytisus proliferus (L. f.) Link,2,2,10,24.75,21.95,21.42,45.59,26.76,22.7067,40494.5568,0.66083
91,Chamaecytisus proliferus (L. f.) Link,2,3,10,46.67,45.46,45.39,175.34,95.56,45.84,165036.1559,0.579025
91,Chamaecytisus proliferus (L. f.) Link,2,,,,,,,,,,
92,Cheirolophus burchardii Susanna,3,1,10,8.9,8.86,8.97,6.97,3.56,8.91,6235.1268,0.570959
92,Cheirolophus burchardii Susanna,3,3,10,18.91,14.89,15.45,20.83,10.26,16.4167,21167.0259,0.484716
92,Cheirolophus burchardii Susanna,3,2,10,7.86,9.55,7.81,5.8,2.38,8.4067,5550.5694,0.428785
92,Cheirolophus burchardii Susanna,3,,,,,,,,,,
93,Cheirolophus canariensis (Brouss. ex Willd.) Holub,2,1,10,7.21,7.13,7.4,4.81,2.61,7.2467,4124.4539,0.632811
93,Cheirolophus canariensis (Brouss. ex Willd.) Holub,2,2,10,7.27,7.03,7,4.46,2.27,7.1,3959.1921,0.573349
93,Cheirolophus canariensis (Brouss. ex Willd.) Holub,2,,,,,,,,,,
94,Cheirolophus metlesicsii Montelongo,,,,,,,,,,,
95,Cheirolophus tagananensis (Svent.) Holub,,,,,,,,,,,
96,Cheirolophus teydis (C. Sm. in Buch) G. López,3,3,10,13.29,14.14,13.39,15.56,7.7,13.6067,14540.9698,0.529538
96,Cheirolophus teydis (C. Sm. in Buch) G. López,3,1,10,6.13,6.27,6.5,3.41,1.6,6.3,3117.2453,0.513274
96,Cheirolophus teydis (C. Sm. in Buch) G. López,3,2,10,7.37,7.5,7.75,5.16,2.14,7.54,4465.1142,0.479271
96,Cheirolophus teydis (C. Sm. in Buch) G. López,3,,,,,,,,,,
97,Cheirolophus webbianus (Sch. Bip.) Holub,3,3,10,10.08,10.11,9.95,9.6,5.37,10.0467,7927.4565,0.677393
97,Cheirolophus webbianus (Sch. Bip.) Holub,3,1,10,12.86,13.3,13,16.29,9.03,13.0533,13382.3609,0.674769
97,Cheirolophus webbianus (Sch. Bip.) Holub,3,2,10,8.9,10.18,9.6,8.16,4.28,9.56,7178.0366,0.596263
97,Cheirolophus webbianus (Sch. Bip.) Holub,3,,,,,,,,,,
98,Chelidonium majus L.,,,,,,,,,,,
99,Chenoleoides tomentosa (Lowe) Botsch.,3,2,10,3.28,3.94,3.57,1.32,0.79,3.5967,1015.9919,0.777565
99,Chenoleoides tomentosa (Lowe) Botsch.,3,1,7,5.42,5.49,5.8,2.04,1.26,5.57,1705.683,0.738707
99,Chenoleoides tomentosa (Lowe) Botsch.,3,3,10,4.12,3.31,3.14,0.84,0.69,3.5233,974.9837,0.707704
99,Chenoleoides tomentosa (Lowe) Botsch.,3,,,,,,,,,,
100,Chenopodium coronopus Moq. in DC.,,,,,,,,,,,
101,Cicer canariense A. Santos & G. P. Lewis,,,,,,,,,,,
102,Cistus chinamadensis A. Bañares & P. Romero,,,,,,,,,,,
441,Cistus monspeliensis,1,1,10,10.56,10.59,11.7,,7.06,10.95,9417.1203,0.749698
441,Cistus monspeliensis,1,,,,,,,,,,
103,Cistus osbaeckiaefolius Webb ex Christ,3,3,10,11.97,11.75,11.74,11.66,7.48,11.82,10972.9862,0.681674
103,Cistus osbaeckiaefolius Webb ex Christ,3,1,10,8.8,9.7,9.79,7.51,4.44,9.43,6984.1453,0.635726
103,Cistus osbaeckiaefolius Webb ex Christ,3,2,10,12.8,14.58,12.87,14.33,8.72,13.4167,14137.7124,0.61679
103,Cistus osbaeckiaefolius Webb ex Christ,3,,,,,,,,,,
104,Cistus symphytifolius Lam.,3,3,10,15.8,15,15.66,,14.26,15.4867,18836.7417,0.757031
104,Cistus symphytifolius Lam.,3,1,10,15.62,16.58,17.18,,15.42,16.46,21278.9181,0.724661
104,Cistus symphytifolius Lam.,3,2,10,12.61,12.67,12.85,14.17,9.15,12.71,12687.6439,0.721174
104,Cistus symphytifolius Lam.,3,,,,,,,,,,
105,Convolvulus canariensis L.,2,2,10,8.11,8.41,11.24,7.42,3.39,9.2533,6724.9072,0.504096
105,Convolvulus canariensis L.,2,1,10,9,8.67,8.23,,2.45,8.6333,5853.9216,0.418523
105,Convolvulus canariensis L.,2,,,,,,,,,,
106,Convolvulus floridus L. f.,3,3,10,43.08,43.99,47.8,188.05,132.58,44.9567,158736.9703,0.835218
106,Convolvulus floridus L. f.,3,2,10,29.64,29.27,29.46,81.33,54.85,29.4567,68148.6225,0.804859
106,Convolvulus floridus L. f.,3,1,10,42.02,42.96,43.25,211.6,110.14,42.7433,143491.6589,0.767571
106,Convolvulus floridus L. f.,3,,,,,,,,,,
107,Convolvulus fruticulosus Desr.,3,2,10,2.43,2.56,2.53,,0.32,2.5067,493.4953,0.648436
107,Convolvulus fruticulosus Desr.,3,1,10,3.69,3.94,4.09,,0.59,3.9067,1198.6782,0.492209
107,Convolvulus fruticulosus Desr.,3,3,10,4.11,4.09,4.05,1.49,0.64,4.0833,1309.5424,0.48872
107,Convolvulus fruticulosus Desr.,3,,,,,,,,,,
108,Convolvulus perraudieri Coss.,3,2,10,3.25,3.18,3.54,1.16,0.54,3.3233,867.4365,0.622524
108,Convolvulus perraudieri Coss.,3,1,10,5.08,4.74,5.17,2.47,1.03,4.9967,1960.8783,0.525275
108,Convolvulus perraudieri Coss.,3,3,10,4.3,4.1,3.9,1.52,0.55,4.1,1320.2543,0.416586
108,Convolvulus perraudieri Coss.,3,,,,,,,,,,
109,Convolvulus scoparius L. f.,3,2,10,27.63,22.8,24.01,49.28,36.49,24.8133,48357.0836,0.754595
109,Convolvulus scoparius L. f.,3,1,10,22.79,25.42,25.01,45.49,32.79,24.4067,46785.0202,0.700865
109,Convolvulus scoparius L. f.,3,3,10,11.07,10.09,13.6,10.83,7.06,11.5867,10544.0367,0.669573
109,Convolvulus scoparius L. f.,3,,,,,,,,,,
110,Convolvulus volubilis Link in Buch,,,,,,,,,,,
111,Crambe arborea Webb ex Christ,3,1,10,7.12,7.45,8.48,5.98,2.75,7.6833,4636.489,0.593121
111,Crambe arborea Webb ex Christ,3,2,10,11.84,10.73,10.43,11.02,4.4,11,9503.3178,0.462996
111,Crambe arborea Webb ex Christ,3,3,10,15.45,15.85,15.86,22.98,8.09,15.72,19408.6338,0.416825
111,Crambe arborea Webb ex Christ,3,,,,,,,,,,
112,Crambe laevigata DC. ex Christ,,,,,,,,,,,
113,Crambe scaberrima Webb ex Bramwell,3,3,4.4,9.77,8.75,8.1,3.06,1.44,8.8733,2720.9224,0.529232
113,Crambe scaberrima Webb ex Bramwell,3,1,10,14.41,15.12,15.24,19.48,8.8,14.9233,17491.2787,0.503108
113,Crambe scaberrima Webb ex Bramwell,3,2,10,6.44,6.22,6.91,4.18,1.42,6.5233,3342.1737,0.424873
113,Crambe scaberrima Webb ex Bramwell,3,,,,,,,,,,
114,Crambe strigosa LHér.,2,2,,12.35,11.47,12.14,13.07,5.13,11.9867,0,
114,Crambe strigosa LHér.,2,3,,13.8,13.48,12.72,16.36,5.81,13.3333,0,
114,Crambe strigosa LHér.,2,,,,,,,,,,
115,Crithmum maritimum L.,2,3,10,4.18,5,6.67,2.7,0.91,5.2833,2192.3299,0.415084
115,Crithmum maritimum L.,2,2,10,5.13,4.88,6.35,3.1,0.76,5.4533,2335.6834,0.325387
115,Crithmum maritimum L.,2,,10,5.72,5.31,5.77,2.84,0.79,5.6,2463.0086,0.320746
115,Crithmum maritimum L.,2,,,,,,,,,,
116,Cryptotaenia elegans Webb ex Bolle,3,1,10,7.53,8.31,8.4,6.26,1.36,8.08,5127.5819,0.265232
116,Cryptotaenia elegans Webb ex Bolle,3,3,10,7.18,7.01,7.03,4.58,1,7.0733,3929.5076,0.254485
116,Cryptotaenia elegans Webb ex Bolle,3,2,10,6.56,5.78,6.17,3.5,0.7,6.17,2989.9244,0.23412
116,Cryptotaenia elegans Webb ex Bolle,3,,,,,,,,,,
117,Cynara cardunculus L.,,,,,,,,,,,
118,Cyperus capitatus Vand.,,,,,,,,,,,
119,Cyperus teneriffae Poir.,,,,,,,,,,,
120,Dactylis metlesicsii Schönfelder & Ludwig,3,,10,1.82,1.73,1.94,,0.17,1.83,263.022,0.646334
120,Dactylis metlesicsii Schönfelder & Ludwig,3,4,10,2.11,1.8,1.56,0.36,0.12,1.8233,261.1091,0.459578
120,Dactylis metlesicsii Schönfelder & Ludwig,3,2,10,2.87,2.29,2.74,0.79,0.24,2.6333,544.63,0.440666
120,Dactylis metlesicsii Schönfelder & Ludwig,3,3,10,2.37,2.42,2.96,0.72,0.18,2.5833,524.1442,0.343417
120,Dactylis metlesicsii Schönfelder & Ludwig,3,,,,,,,,,,
121,Dactylis smithii Link,3,2,10,1.44,1.85,2.02,0.6,0.13,1.77,246.0574,0.528332
121,Dactylis smithii Link,3,1,10,2.48,3.08,2.4,0.49,0.2,2.6533,552.9343,0.361707
121,Dactylis smithii Link,3,3,10,11.71,2.18,1.93,0.41,0.14,5.2733,2184.0387,0.064101
121,Dactylis smithii Link,3,,,,,,,,,,
440,Daphne gnidium,1,4,10,10.1,9.9,10.88,8.26,4.15,10.2933,8321.5065,0.498708
440,Daphne gnidium,1,2,10,11.76,11.16,10.57,8.98,4.79,11.1633,9787.6328,0.489393
440,Daphne gnidium,1,3,10,11,9.4,10.75,6.93,3.81,10.3833,8467.6612,0.449947
440,Daphne gnidium,1,1,10,11.69,12.3,12.65,,5,12.2133,11715.4318,0.426788
440,Daphne gnidium,1,,,,,,,,,,
122,Descurainia bourgeauana (E. Fourn.) O. E. Schulz,3,2,10,4.32,3.99,3.97,1.54,0.79,4.0933,1315.9643,0.60032
122,Descurainia bourgeauana (E. Fourn.) O. E. Schulz,3,3,10,5.9,5.83,6.06,3.02,1.56,5.93,2761.8448,0.56484
122,Descurainia bourgeauana (E. Fourn.) O. E. Schulz,3,1,10,5.39,5.16,5.7,2.37,1.28,5.4167,2304.38,0.555464
122,Descurainia bourgeauana (E. Fourn.) O. E. Schulz,3,,,,,,,,,,
123,Descurainia gonzalesii Svent.,3,3,10,5.37,6.25,5.78,3.14,1.62,5.8,2642.0794,0.613153
123,Descurainia gonzalesii Svent.,3,2,7.2,7.2,6.2,5.18,2.61,1.26,6.1933,2169.0586,0.580897
123,Descurainia gonzalesii Svent.,3,1,10,5.37,6.7,5.54,2.8,1.36,5.87,2706.2386,0.502543
123,Descurainia gonzalesii Svent.,3,,,,,,,,,,
124,Descurainia lemsii Bramwell,3,3,10,3.4,3.71,5.2,2.03,1.07,4.1033,1322.4019,0.809134
124,Descurainia lemsii Bramwell,3,2,10,4.87,5.08,3.33,1.96,1.1,4.4267,1539.0174,0.714742
124,Descurainia lemsii Bramwell,3,1,10,8.82,9.27,8.7,6.8,3.74,8.93,6263.1498,0.597144
124,Descurainia lemsii Bramwell,3,,,,,,,,,,
125,Descurainia millefolia (Jacq.)  Webb & Berthel.,3,1,10,5.38,4.48,3.91,,1.34,4.59,1654.6847,0.809822
125,Descurainia millefolia (Jacq.)  Webb & Berthel.,3,3,10,3.9,4.02,4.27,1.63,1,4.0633,1296.7456,0.771161
125,Descurainia millefolia (Jacq.)  Webb & Berthel.,3,2,10,8.25,8.12,7.66,5.85,3.5,8.01,5039.1225,0.694565
125,Descurainia millefolia (Jacq.)  Webb & Berthel.,3,,,,,,,,,,
126,Dicheranthus plocamoides Webb,2,2,5.9,3.75,3.64,2.67,0.59,0.33,3.3533,521.0691,0.633313
126,Dicheranthus plocamoides Webb,2,3,3.49,7.83,5.47,5.65,0.98,0.56,6.3167,1093.6824,0.512032
126,Dicheranthus plocamoides Webb,2,,,,,,,,,,
127,Dorycnium broussonetii (Choisy ex Ser. in DC.) Webb & Berthel.,,,,,,,,,,,
128,Dorycnium eriophthalmum Webb & Berthel.,,,,,,,,,,,
129,Dorycnium spectabile (Choisy ex Ser. in DC.) Webb & Berthel.,,,,,,,,,,,
130,Dracaena draco L.,1,2,6.7,115.84,93.55,,439.41,143.63,104.695,576788.4651,0.249017
130,Dracaena draco L.,1,,,,,,,,,,
131,Dracunculus canariensis Kunth,2,2,10,15.04,13.85,15.51,15.43,1.21,14.8,17203.3614,0.070335
131,Dracunculus canariensis Kunth,2,1,10,15.04,14.8,14.24,14.83,0.94,14.6933,16956.2786,0.055437
131,Dracunculus canariensis Kunth,2,,,,,,,,,,
132,Drimia maritima (L.) Stearn,,,,,,,,,,,
133,Drusa glandulosa (Poir.) Bornm.,2,3,10,1.94,2.16,2.21,0.55,0.06,2.1033,347.461,0.172681
133,Drusa glandulosa (Poir.) Bornm.,2,2,10,2.46,2.48,2.43,0.51,0.04,2.4567,474.0044,0.084387
133,Drusa glandulosa (Poir.) Bornm.,2,,10,4.52,4.07,4.26,,0.08,4.2833,1440.9656,0.055518
133,Drusa glandulosa (Poir.) Bornm.,2,,,,,,,,,,
134,Ebingeria elegans (Lowe) Chrtek & Krísa,1,3,10,0.91,1.06,1.2,0.09,0.03,1.0567,87.6932,0.387715
134,Ebingeria elegans (Lowe) Chrtek & Krísa,1,,,,,,,,,,
135,Echium aculeatum Poir.,3,3,10,9.92,9.76,11.21,10.58,4.23,10.2967,8326.8969,0.507992
135,Echium aculeatum Poir.,3,2,10,16.9,17.02,17.3,26.86,11.41,17.0733,22894.2552,0.498378
135,Echium aculeatum Poir.,3,1,10,13.14,13.69,13.97,17.31,7.07,13.6,14526.7244,0.486689
135,Echium aculeatum Poir.,3,,,,,,,,,,
136,Echium auberianum Webb & Berthel.,,,,,,,,,,,
137,Echium bonnetii Coincy,3,2,10,2.18,2.95,3.7,0.86,0.16,2.9433,680.407,0.235153
137,Echium bonnetii Coincy,3,1,10,2.98,2.56,2.11,0.73,0.12,2.55,510.7052,0.234969
137,Echium bonnetii Coincy,3,3,8.46,2.19,2.31,3.05,0.45,0.09,2.5167,420.8348,0.213861
137,Echium bonnetii Coincy,3,,,,,,,,,,
138,Echium giganteum L. f.,1,2,10,34.4,34.59,35.07,102.08,47.2,34.6867,94496.3459,0.49949
138,Echium giganteum L. f.,1,,10,28.92,28.28,29.9,,32.64,29.0333,66203.9165,0.493022
138,Echium giganteum L. f.,1,,,,,,,,,,
139,Echium leucophaeum Webb ex Sprague & Hutch.,3,3,10,17.54,16.51,16.43,23.54,14.94,16.8267,22237.5053,0.671838
139,Echium leucophaeum Webb ex Sprague & Hutch.,3,1,10,23.29,21.04,24.71,45.8,22.46,23.0133,41595.7479,0.539959
139,Echium leucophaeum Webb ex Sprague & Hutch.,3,2,10,25.3,24.47,23.96,54.54,25.04,24.5767,47439.0343,0.527835
139,Echium leucophaeum Webb ex Sprague & Hutch.,3,,,,,,,,,,
140,Echium simplex DC.,1,2,10,23.25,22.78,24.4,46.94,12.79,23.4767,43287.5243,0.295466
140,Echium simplex DC.,1,,,,,,,,,,
141,Echium strictum L. f.,2,2,10,13.85,13.52,13.66,16.81,7.33,13.6767,14690.9678,0.498946
141,Echium strictum L. f.,2,3,10,7.09,6.61,6.85,4.34,1.76,6.85,3685.2845,0.477575
141,Echium strictum L. f.,2,,10,14.65,14.68,14.31,19.21,6.95,14.5467,16619.458,0.418185
141,Echium strictum L. f.,2,,,,,,,,,,
142,Echium sventenii Bramwell,,,,,,,,,,,
143,Echium triste Svent.,3,3,10,4.07,4.52,5.13,1.81,0.39,4.5733,1642.6899,0.237415
143,Echium triste Svent.,3,1,10,5.19,5.72,5.07,2.59,0.52,5.3267,2228.4399,0.233347
143,Echium triste Svent.,3,2,10,5.46,5.02,4.23,1.85,0.43,4.9033,1888.3075,0.227717
143,Echium triste Svent.,3,,,,,,,,,,
144,Echium virescens DC.,5,4,10,39.81,38.77,39.34,180.27,79.93,39.3067,121345.1193,0.6587
144,Echium virescens DC.,5,1,10,25.07,23.52,26.05,,24.84,24.88,48617.2773,0.510929
144,Echium virescens DC.,5,5,10,19.42,19.58,19.52,36.97,15.2,19.5067,29885.189,0.508613
144,Echium virescens DC.,5,3,10,24.44,26.01,26.02,54.07,21.3,25.49,51030.4681,0.417398
144,Echium virescens DC.,5,2,10,25.85,27.25,28.24,57.92,24.02,27.1133,57737.1986,0.416023
145,Echium wildpretii Pearson ex Hook. f.,1,1,10,54.46,62.48,85.49,280.49,42.11,67.4767,357599.6805,0.117757
145,Echium wildpretii Pearson ex Hook. f.,1,,,,,,,,,,
146,Ephedra altissima Desf.,,,,,,,,,,,
147,Ephedra fragilis Desf.,3,1,10,6.16,6.38,6.21,3.55,1.93,6.25,3067.9616,0.629082
147,Ephedra fragilis Desf.,3,2,10,5.15,5.01,5.55,2.48,1.29,5.2367,2153.7721,0.598949
147,Ephedra fragilis Desf.,3,3,10,18.96,17.26,19,27.22,13.99,18.4067,26609.7121,0.525748
147,Ephedra fragilis Desf.,3,,,,,,,,,,
148,Ephedra major Host,2,2,10,17.92,18.61,18.3,28.12,18.07,18.2767,26235.1689,0.68877
148,Ephedra major Host,2,1,10,30.28,31.16,31.57,55.82,40.68,31.0033,75492.9959,0.538858
148,Ephedra major Host,2,,,,,,,,,,
149,Erica arborea L.,10*,,,,,,,,,,0.6193
149,Erica arborea L.,10*,,,,,,,,,,
150,Erica platycodon (Webb & Berthel.) Rivas-Mart. & al.,10*,,,,,,,,,,0.7148
150,Erica platycodon (Webb & Berthel.) Rivas-Mart. & al.,10*,,,,,,,,,,
151,Erigeron calderae A. Hansen,,,,,,,,,,,
152,Erucastrum canariense Webb & Berthel.,,,,,,,,,,,
153,Erucastrum cardaminoides (Webb ex Christ) O. E. Schulz,,,,,,,,,,,