IDmaster,Species,total number of individual collected for stem. *indicates average already calculated,individual,stem length (cm) ,D1 (mm) ,D2 (mm) ,D3 (mm) ,Stem fresh mass (g),Stem dry mass (g),average D (mm). Formula =AVERAGE(F2:H2),Stem volume - 1 mm^3.  Formula =PI()*(K2*0.5)^2*(E2*10),Stem specific density (SSD) (mg/mm^3). 
72,Bystropogon canariensis (L.) L’Hér.,2,2,10,7.02,7.2,6.83,3.96,1.82,7.0167,3866.7988,0.470674
72,Bystropogon canariensis (L.) L’Hér.,2,3,10,6.27,6.29,5.71,3.18,1.18,6.09,2912.8926,0.405096
72,Bystropogon canariensis (L.) L’Hér.,2,,,,,,,,,,
74,Bystropogon origanifolius L’Hér.,3,3,10,11.16,10.91,11.59,11.21,5.27,11.22,9887.2518,0.53301
74,Bystropogon origanifolius L’Hér.,3,2,10,4.51,4.77,4.99,1.9,0.93,4.7567,1777.0323,0.523344
74,Bystropogon origanifolius L’Hér.,3,1,10,5.44,4.52,4.75,2.01,0.94,4.9033,1888.3075,0.4978
74,Bystropogon origanifolius L’Hér.,3,,,,,,,,,,
75,Bystropogon plumosus (L. f.) L’Hér.,3,1,10,10.4,10.1,10.26,10.21,5.2,10.2533,8256.9572,0.629772
75,Bystropogon plumosus (L. f.) L’Hér.,3,2,10,15.15,15.31,15.49,21.89,10.81,15.3167,18425.4627,0.586688
75,Bystropogon plumosus (L. f.) L’Hér.,3,3,9.55,13.9,12.61,13.12,11.09,5.78,13.21,13088.7716,0.4416
75,Bystropogon plumosus (L. f.) L’Hér.,3,,,,,,,,,,
114,Crambe strigosa L’Hér.,2,2,,12.35,11.47,12.14,13.07,5.13,11.9867,0,
114,Crambe strigosa L’Hér.,2,3,,13.8,13.48,12.72,16.36,5.81,13.3333,0,
114,Crambe strigosa L’Hér.,2,,,,,,,,,,
282,Pericallis cruenta (L’Hér.) Bolle,3,3,10,6.77,6.93,5.14,3.65,0.63,6.28,3097.4847,0.203391
282,Pericallis cruenta (L’Hér.) Bolle,3,2,10,5.65,6.87,4.56,3.27,0.48,5.6933,2545.7931,0.188546
282,Pericallis cruenta (L’Hér.) Bolle,3,1,10,5.77,4.61,4.1,1.45,0.16,4.8267,1829.7194,0.087445
282,Pericallis cruenta (L’Hér.) Bolle,3,,,,,,,,,,
284,Pericallis lanata (L’Hér.) B. Nord.,3,2,10,1.83,1.77,0.89,0.28,0.1,1.4967,175.9301,0.568408
284,Pericallis lanata (L’Hér.) B. Nord.,3,1,10,2.3,2.14,2.34,0.56,0.21,2.26,401.15,0.523495
284,Pericallis lanata (L’Hér.) B. Nord.,3,3,10,2.37,2.23,2.32,0.55,0.19,2.3067,417.8877,0.454668
284,Pericallis lanata (L’Hér.) B. Nord.,3,,,,,,,,,,
285,Pericallis multiflora (L’Hér.) B. Nord.,,,,,,,,,,,
286,Pericallis tussilaginis (L’Hér.) D. Don in Sweet,2,3,10,0.83,2.12,2.41,0.45,0.06,1.7867,250.7131,0.239317
286,Pericallis tussilaginis (L’Hér.) D. Don in Sweet,2,2,10,3.66,3.83,3.98,1.3,0.19,3.8233,1148.0854,0.165493
286,Pericallis tussilaginis (L’Hér.) D. Don in Sweet,2,,,,,,,,,,
407,Teucrium heterophyllum L’Hér.,3,1,10,8.39,8.49,8.79,7.21,4.11,8.5567,5750.414,0.714731
407,Teucrium heterophyllum L’Hér.,3,2,10,9.43,9.62,9.32,8.68,4.74,9.4567,7023.7015,0.674858
407,Teucrium heterophyllum L’Hér.,3,3,10,16.68,17.42,17.76,22.28,14,17.2867,23469.9626,0.596507
407,Teucrium heterophyllum L’Hér.,3,,,,,,,,,,