IDmaster,Species,total number of individual collected for stem. *indicates average already calculated,individual,stem length (cm) ,D1 (mm) ,D2 (mm) ,D3 (mm) ,Stem fresh mass (g),Stem dry mass (g),average D (mm). Formula =AVERAGE(F2:H2),Stem volume - 1 mm^3.  Formula =PI()*(K2*0.5)^2*(E2*10),Stem specific density (SSD) (mg/mm^3). 
154,Erysimum bicolor (Hornem.) DC.,3,2,10,5.73,5.81,6.33,3.45,1.95,5.9567,2786.7402,0.699742
154,Erysimum bicolor (Hornem.) DC.,3,3,10,5.02,5.49,4.94,2.59,1.29,5.15,2083.0723,0.619278
154,Erysimum bicolor (Hornem.) DC.,3,1,10,6.69,8.47,6.64,4.16,2.27,7.2667,4147.2514,0.54735
154,Erysimum bicolor (Hornem.) DC.,3,,,,,,,,,,
155,Erysimum scoparium (Brouss. ex Willd.) Wettst.,3,1,10,9.65,9.36,9.39,8.46,4.51,9.4667,7038.5638,0.640756
155,Erysimum scoparium (Brouss. ex Willd.) Wettst.,3,3,10,7.18,8.13,8.02,5.95,2.85,7.7767,4749.8167,0.600023
155,Erysimum scoparium (Brouss. ex Willd.) Wettst.,3,2,10,6.6,6.39,7.14,4.03,2.05,6.71,3536.1845,0.579721
155,Erysimum scoparium (Brouss. ex Willd.) Wettst.,3,,,,,,,,,,
156,Euphorbia aphylla Brouss. ex Willd.,3,1,8.72,24.77,24.37,25.79,37.02,12.26,24.9767,42724.336,0.286956
156,Euphorbia aphylla Brouss. ex Willd.,3,3,3.2,10.65,10.24,10.8,6.25,0.6,10.5633,2804.4121,0.213949
156,Euphorbia aphylla Brouss. ex Willd.,3,2,10,13.93,14.36,13.79,14.67,1.89,14.0267,15452.5029,0.12231
156,Euphorbia aphylla Brouss. ex Willd.,3,,,,,,,,,,
157,Euphorbia atropurpurea (Brouss.) Webb & Berthel.,3,2,10,26.75,26.82,26.95,64.08,21.12,26.84,56578.9527,0.373284
157,Euphorbia atropurpurea (Brouss.) Webb & Berthel.,3,3,10,13.1,13.92,13.74,16.88,4.98,13.5867,14498.2546,0.34349
157,Euphorbia atropurpurea (Brouss.) Webb & Berthel.,3,1,10,32.79,31.32,31.48,84.11,23.91,31.8633,79739.2773,0.299852
157,Euphorbia atropurpurea (Brouss.) Webb & Berthel.,3,,,,,,,,,,
158,Euphorbia balsamifera Aiton,3,1,10,34.39,34.36,33.75,82.33,23.45,34.1667,91684.3273,0.255769
158,Euphorbia balsamifera Aiton,3,3,10,45.06,45.28,46,123.64,40.76,45.4467,162216.0983,0.25127
158,Euphorbia balsamifera Aiton,3,2,10,37.51,36.26,41.44,74.79,24.24,38.4033,115831.7786,0.209269
158,Euphorbia balsamifera Aiton,3,,,,,,,,,,
159,Euphorbia bourgeauana Gay ex Boiss. in DC.,1,1,10,34.62,31.58,32.46,81.26,28.67,32.8867,84943.391,0.337519
159,Euphorbia bourgeauana Gay ex Boiss. in DC.,1,,,,,,,,,,
160,Euphorbia canariensis L.,1,1,11.77,,,,,,,,0.096924
160,Euphorbia canariensis L.,1,,,,,,,,,,
161,Euphorbia lamarckii Sweet,2,,10,44.25,43.78,43.61,147.07,54.06,43.88,151224.8349,0.357481
161,Euphorbia lamarckii Sweet,2,2,10,25.72,25.42,25.66,51.96,13.66,25.6,51471.854,0.265388
161,Euphorbia lamarckii Sweet,2,3,10,14.17,15.24,15.54,15.07,4.07,14.9833,17632.2106,0.230828
161,Euphorbia lamarckii Sweet,2,,,,,,,,,,
162,Euphorbia mellifera Aiton,,,,,,,,,,,
163,Ferula linkii Webb,1,1,10,8.59,9.39,9.17,6.71,0.7,9.05,6432.6073,0.108821
163,Ferula linkii Webb,1,,,,,,,,,,
164,Festuca agustinii Linding.,2,2,10,1.33,1.38,1.18,0.16,0.11,1.2967,132.0525,0.833002
164,Festuca agustinii Linding.,2,1,10,1.76,1.14,1.3,0.16,0.07,1.4,153.938,0.454728
164,Festuca agustinii Linding.,2,,,,,,,,,,
165,Forsskaolea angustifolia Retz.,1,,10,9.27,7.37,8.65,,1.52,8.43,5581.4242,0.272332
165,Forsskaolea angustifolia Retz.,1,,10,2.97,3.13,3.33,,0.2,3.1433,776.0161,0.257727
165,Forsskaolea angustifolia Retz.,1,3,10,2.35,1.97,1.75,0.43,0.08,2.0233,321.5324,0.248809
165,Forsskaolea angustifolia Retz.,1,,,,,,,,,,
166,Frankenia capitata Webb & Berthel.,3,3,2.7,7.7,5.2,3.8,0.76,0.51,5.5667,657.1191,0.776115
166,Frankenia capitata Webb & Berthel.,3,1,10,5.76,5.59,3.74,2.89,1.5,5.03,1987.128,0.754858
166,Frankenia capitata Webb & Berthel.,3,2,5,2.06,2.83,3.27,0.47,0.21,2.72,290.5345,0.722806
166,Frankenia capitata Webb & Berthel.,1,,,,,,,,,,
167,Frankenia ericifolia C. Sm. ex DC.,1,1,5.15,6.71,9.31,8.25,,2.19,8.09,2647.2451,0.827275
167,Frankenia ericifolia C. Sm. ex DC.,1,,,,,,,,,,
168,Fumaria coccinea Lowe ex Pugsley,2,2,10,1.29,1.31,1.37,0.17,0.03,1.3233,137.5398,0.218119
168,Fumaria coccinea Lowe ex Pugsley,2,3,10,2.51,2.09,2.64,0.4,0.04,2.4133,457.4299,0.087445
168,Fumaria coccinea Lowe ex Pugsley,2,,,,,,,,,,
169,Fumaria montana Schmidt,3,3,10,1.03,1.01,0.43,0.12,0.03,0.8233,53.2404,0.563482
169,Fumaria montana Schmidt,3,1,10,1.89,2.16,2.07,0.39,0.06,2.04,326.8513,0.18357
169,Fumaria montana Schmidt,3,2,6.7,2.41,2.21,2.2,0.25,0.03,2.2733,271.9512,0.110314
169,Fumaria montana Schmidt,3,,,,,,,,,,
442,Galium scabrum,1,1,10,2.36,2.34,2.2,,0.16,2.3,415.4756,0.385101
442,Galium scabrum,1,,,,,,,,,,
443,Geranium canariense,,,,,,,,,,,
170,Geranium reuteri Aedo & Muñoz Garm.,3,1,10,8.67,10.62,11.82,11.12,1.93,10.37,8445.9284,0.228512
170,Geranium reuteri Aedo & Muñoz Garm.,3,2,10,13.34,13.56,13.79,15.77,3.28,13.5633,14448.4996,0.227013
170,Geranium reuteri Aedo & Muñoz Garm.,3,3,10,14.73,15.61,12.65,16.8,2.91,14.33,16128.0649,0.180431
170,Geranium reuteri Aedo & Muñoz Garm.,3,,,,,,,,,,
171,Gesnouinia arborea (L. f.) Gaudich.,3,1,10,30.61,30.66,30.05,,33.54,30.44,72774.4912,0.460876
171,Gesnouinia arborea (L. f.) Gaudich.,3,2,10,23.44,23.95,21.38,46.64,18.74,22.9233,41271.0407,0.454071
171,Gesnouinia arborea (L. f.) Gaudich.,3,3,7.9,16.51,16.05,15.82,16.36,6.08,16.1267,16136.3829,0.376788
171,Gesnouinia arborea (L. f.) Gaudich.,3,,,,,,,,,,
172,Globularia salicina Lam.,3,3,10,13.16,15.18,13.72,,11.45,14.02,15437.8177,0.741685
172,Globularia salicina Lam.,3,2,10,16.38,15.73,15.06,,11.63,15.7233,19416.8656,0.598964
172,Globularia salicina Lam.,3,1,10,,,,,11.51,,,
172,Globularia salicina Lam.,3,,,,,,,,,,
173,Gonospermum fruticosum (Buch) Less.,2,2,10,4.34,4.78,4.64,2.11,1.19,4.5867,1652.2823,0.720216
173,Gonospermum fruticosum (Buch) Less.,2,3,10,9.73,10.17,9.85,9.44,5.42,9.9167,7723.6274,0.701743
173,Gonospermum fruticosum (Buch) Less.,2,,10,8.18,8.46,8.35,,2.99,8.33,5449.7915,0.548645
173,Gonospermum fruticosum (Buch) Less.,2,,,,,,,,,,
174,Gonospermum revolutum (C. Sm in Buch) Sch. Bip.,3,3,10,10.34,8.25,7.83,6.55,3.58,8.8067,6091.3422,0.587719
174,Gonospermum revolutum (C. Sm in Buch) Sch. Bip.,3,2,10,10.38,10.04,10.01,8.99,4.67,10.1433,8080.7427,0.577917
174,Gonospermum revolutum (C. Sm in Buch) Sch. Bip.,3,1,10,9.55,9.61,9.5,7.74,3.48,9.5533,7168.0288,0.485489
174,Gonospermum revolutum (C. Sm in Buch) Sch. Bip.,3,,,,,,,,,,
175,Greenovia aizoon Bolle,,,,,,,,,,,
176,Greenovia aurea (C. Sm. ex Hornem.) Webb & Berthel.,,,,,,,,,,,
177,Greenovia dodrentalis (Willd.) Webb & Berthel.,,,,,,,,,,,
178,Gymnocarpos decandrus Forssk.,3,2,10,3.13,3.6,1.97,1.04,0.58,2.9,660.5199,0.878096
178,Gymnocarpos decandrus Forssk.,3,3,6.99,3.72,3.76,3.37,0.91,0.54,3.6167,718.0985,0.751986
178,Gymnocarpos decandrus Forssk.,3,1,10,10.91,9.2,9.3,8.34,5.09,9.8033,7548.0961,0.674342
178,Gymnocarpos decandrus Forssk.,3,,,,,,,,,,
179,Habenaria tridactylites Lindl.,,,,,,,,,,,
180,Heberdenia excelsa (Aiton) Banks ex DC.,10*,,,,,,,,,,0.623617
180,Heberdenia excelsa (Aiton) Banks ex DC.,10*,,,,,,,,,,
181,Hedera canariensis Willd.,3,2,10,14.9,15.66,16.73,24,10.36,15.7633,19515.7839,0.530852
181,Hedera canariensis Willd.,3,3,10,14.94,14.98,15.53,15.66,5.97,15.15,18026.655,0.331176
181,Hedera canariensis Willd.,3,1,10,5.68,6.59,5.67,3.66,0.9,5.98,2808.6152,0.320443
181,Hedera canariensis Willd.,3,,,,,,,,,,
182,Helianthemum broussonetii Dunal ex DC.,3,2,10,2.77,2.38,1.63,0.57,0.24,2.26,401.15,0.59828
182,Helianthemum broussonetii Dunal ex DC.,3,3,8.4,3.87,4.37,4.79,1.45,0.74,4.3433,1244.559,0.594588
182,Helianthemum broussonetii Dunal ex DC.,3,1,10,3.26,2.75,2.83,0.82,0.36,2.9467,681.949,0.527899
182,Helianthemum broussonetii Dunal ex DC.,3,,,,,,,,,,
183,Helianthemum canariense (Jacq.) Pers.,3,1,6.18,3.47,2.59,2.77,0.43,0.29,2.9433,420.4915,0.689669
183,Helianthemum canariense (Jacq.) Pers.,3,2,4.98,6.83,3.39,2.99,1.08,0.5,4.4033,758.3721,0.659307
183,Helianthemum canariense (Jacq.) Pers.,3,3,7.07,4.12,5.62,3.6,2.05,0.6,4.4467,1097.9396,0.546478
183,Helianthemum canariense (Jacq.) Pers.,3,,,,,,,,,,
184,Helianthemum juliae Wildpret,2,2,10,4.5,4.43,4.61,1.63,0.81,4.5133,1599.87,0.506291
184,Helianthemum juliae Wildpret,2,1,10,8.29,7.47,6.81,3.94,1.78,7.5233,4445.3964,0.400414
184,Helianthemum juliae Wildpret,2,,,,,,,,,,
185,Helianthemum teneriffae Coss.,,,,,,,,,,,
186,Heliotropium ramosissimum (Lehm.) DC.,3,2,4.03,8.01,8.86,9.35,1.59,0.96,8.74,2417.7856,0.397058
186,Heliotropium ramosissimum (Lehm.) DC.,3,1,5.8,4.03,5.57,3.8,0.59,0.31,4.4667,908.8348,0.341096
186,Heliotropium ramosissimum (Lehm.) DC.,3,3,10,12.86,12.68,9.41,7.79,3.17,11.65,10659.6202,0.297384
186,Heliotropium ramosissimum (Lehm.) DC.,3,,,,,,,,,,
187,Herniaria canariensis Chaudhri,2,1,7.34,1.52,2.06,2.73,0.38,0.22,2.1033,255.0364,0.862622
187,Herniaria canariensis Chaudhri,2,2,9.13,3.58,3.37,4.08,0.96,0.57,3.6767,969.3245,0.588038
187,Herniaria canariensis Chaudhri,2,,,,,,,,,,
188,Himantoglossum metlesicsianum (W. P. Teschner) P. Delforge,,,,,,,,,,,
189,Hyparrhenia hirta (L.) Stapf in Prain,,,,,,,,,,,
444,Hyparrhenia sinaica,3,3,10,1.18,1.2,1.03,0.14,0.09,1.1367,101.4743,0.886924
444,Hyparrhenia sinaica,3,1,10,1.57,1.41,1.92,0.28,0.18,1.6333,209.5268,0.859079
444,Hyparrhenia sinaica,3,2,10,2.35,1.91,2.42,0.41,0.2,2.2267,389.4039,0.513606
444,Hyparrhenia sinaica,3,,,,,,,,,,
190,Hypericum canariense L.,3,3,10,47.49,48.01,42.35,177.47,118.74,45.95,165829.1646,0.716038
190,Hypericum canariense L.,3,1,10,47.13,47.03,47.32,197.04,113.38,47.16,174677.7038,0.649081
190,Hypericum canariense L.,3,2,10,23.16,23.91,23.92,54.35,2.15,23.6633,43978.6328,0.048887
190,Hypericum canariense L.,3,,,,,,,,,,
191,Hypericum glandulosum Aiton,3,1,10,6.19,5.59,6.18,3.46,1.63,5.9867,2814.881,0.579065
191,Hypericum glandulosum Aiton,3,2,10,6.53,6.44,7.6,4.27,2.05,6.8567,3692.4613,0.555185
191,Hypericum glandulosum Aiton,3,3,10,6.65,6.76,6.43,4.17,1.85,6.6133,3435.0314,0.538569
191,Hypericum glandulosum Aiton,3,,,,,,,,,,
192,Hypericum grandifolium Choisy,3,2,10,7.37,8.76,7.41,5.82,2.14,7.8467,4835.7105,0.442541
192,Hypericum grandifolium Choisy,3,3,10,13.39,12.78,13.12,15.41,5.89,13.0967,13471.3596,0.437224
192,Hypericum grandifolium Choisy,3,1,10,34.9,31.98,29.71,,34.19,32.1967,81416.3642,0.41994
192,Hypericum grandifolium Choisy,3,,,,,,,,,,
445,Hypericum perforatum,3,2,10,6,5.08,4.88,3.14,1.54,5.32,2222.8653,0.6928
445,Hypericum perforatum,3,1,10,7.62,7.54,7.82,5.3,2.49,7.66,4608.3708,0.540321
445,Hypericum perforatum,3,3,10,6.95,7.23,7.44,4.63,1.99,7.2067,4079.0474,0.487859
445,Hypericum perforatum,3,,,,,,,,,,
193,Hypericum reflexum L. f.,2,3,10,10.2,9.91,9.93,8.69,4.51,10.0133,7874.9395,0.572703
193,Hypericum reflexum L. f.,2,2,10,9.06,9.04,9.83,7.69,3.51,9.31,6807.525,0.515606
193,Hypericum reflexum L. f.,2,,,,,,,,,,
194,Hypochoeris oligocephala (Svent. & Bramwell) Lack,3,2,6.48,4.42,5,6.2,1.38,0.52,5.2067,1379.6993,0.376894
194,Hypochoeris oligocephala (Svent. & Bramwell) Lack,3,1,6.2,4.9,5.9,5.69,1.63,0.55,5.4967,1471.2293,0.372478
194,Hypochoeris oligocephala (Svent. & Bramwell) Lack,3,3,5,6.16,4.8,4.73,0.9,0.32,5.23,1074.1459,0.293256
194,Hypochoeris oligocephala (Svent. & Bramwell) Lack,,,,,,,,,,,
195,Ilex canariensis Poir.,10*,,,,,,,,,,0.644073
195,Ilex canariensis Poir.,10*,,,,,,,,,,
196,Ilex perado Aiton,10*,,,,,,,,,,0.55036
196,Ilex perado Aiton,10*,,,,,,,,,,
197,Isoplexis canariensis (L.) J. W. Loudon,3,1,10,12.58,13.35,13.45,,6.4,13.1267,13533.1469,0.472913
197,Isoplexis canariensis (L.) J. W. Loudon,3,3,10,9.77,9.07,9.19,7.49,2.98,9.3433,6856.3593,0.434633
197,Isoplexis canariensis (L.) J. W. Loudon,3,2,10,8.41,8.07,8.59,6.08,2.37,8.3567,5484.7399,0.432108
197,Isoplexis canariensis (L.) J. W. Loudon,3,,,,,,,,,,
198,Ixanthus viscosus (Sm.) Griseb.,3,1,10,12.63,11.54,11.96,,5.05,12.0433,11391.5624,0.443311
198,Ixanthus viscosus (Sm.) Griseb.,3,3,10,11.5,8.21,7.44,6.72,2.75,9.05,6432.6073,0.427509
198,Ixanthus viscosus (Sm.) Griseb.,3,2,2,10,9.94,10.03,,0.08,9.99,1567.6563,0.050033
198,Ixanthus viscosus (Sm.) Griseb.,3,,,,,,,,,,
199,Jasminum odoratissimum L.,3,3,10,21.5,20.86,21.15,41.79,27.15,21.17,35199.1031,0.771326
199,Jasminum odoratissimum L.,3,1,10,17.2,17.24,17.62,26.54,17.65,17.3533,23651.3372,0.746258
199,Jasminum odoratissimum L.,3,2,10,17.7,17.47,17.11,25.28,14.96,17.4267,23851.6556,0.62721
199,Jasminum odoratissimum L.,3,,,,,,,,,,
200,Juniperus cedrus Webb & Berthel.,2,1,10,13.76,13.67,14.24,17.55,8.32,13.89,15152.8517,0.549072
200,Juniperus cedrus Webb & Berthel.,2,3,10,13.09,13.5,13.85,17,7.16,13.48,14271.5014,0.501699
200,Juniperus cedrus Webb & Berthel.,2,,,,,,,,,,
201,Juniperus turbinata Guss.,3,3,8.4,5.15,5.15,5.15,1.59,1.39,5.15,1749.7807,0.794385
201,Juniperus turbinata Guss.,3,2,10.2,5.1,5.1,5.1,2,1.58,5.1,2083.677,0.758275
201,Juniperus turbinata Guss.,3,1,13.5,5.5,5.5,5.5,2.39,1.99,5.5,3207.3697,0.620446
201,Juniperus turbinata Guss.,3,,,,,,,,,,
202,Justicia hyssopifolia L.,2,2,10,5.74,8.77,9.32,5.53,3.59,7.9433,4955.591,0.724434
202,Justicia hyssopifolia L.,2,3,10,16.45,16.85,16.14,21,12.58,16.48,21330.6601,0.589761
202,Justicia hyssopifolia L.,2,,10,24.79,25,25.3,47.31,20.93,25.03,49205.2656,0.425361
202,Justicia hyssopifolia L.,2,,,,,,,,,,
203,Kickxia sagittata (Poir.) Rothm.,4,2,10,0.66,0.51,0.44,0.03,0.01,0.5367,22.6203,0.44208
203,Kickxia sagittata (Poir.) Rothm.,4,1,10,1.31,0.79,0.71,0.08,0.03,0.9367,68.9065,0.435373
203,Kickxia sagittata (Poir.) Rothm.,4,4,10,0.67,0.68,0.42,0.04,0.01,0.59,27.3397,0.365768
203,Kickxia sagittata (Poir.) Rothm.,4,3,7.9,0.44,0.53,0.44,0.03,0,0.47,13.7061,0.102145
203,Kickxia sagittata (Poir.) Rothm.,4,,,,,,,,,,
204,Kickxia scoparia (Brouss. ex Spreng.) G. Kunkel & Sunding,3,3,9.7,2.6,2.24,1.79,0.54,0.32,2.21,372.0884,0.860011
204,Kickxia scoparia (Brouss. ex Spreng.) G. Kunkel & Sunding,3,2,10,2.44,2.59,3.84,0.91,0.54,2.9567,686.5855,0.786501
204,Kickxia scoparia (Brouss. ex Spreng.) G. Kunkel & Sunding,3,1,7.2,1.58,1.76,1.66,0.39,0.02,1.6667,157.0796,0.146423
204,Kickxia scoparia (Brouss. ex Spreng.) G. Kunkel & Sunding,3,,,,,,,,,,
205,Kleinia neriifolia Haw.,3,1,10,56.61,58.76,56.93,268.82,117.48,57.4333,259070.4782,0.453467
205,Kleinia neriifolia Haw.,3,2,10,35.81,36.95,39.46,120.73,26.83,37.4067,109897.5222,0.244137
205,Kleinia neriifolia Haw.,3,3,10,32.36,31.51,29.64,83.82,12.18,31.17,76306.843,0.159619
205,Kleinia neriifolia Haw.,3,,,,,,,,,,
206,Kunkeliella psilotoclada (Svent.) Stearn,,,,,,,,,,,
207,Kunkeliella retamoides A. Santos,3,1,10,12.11,11.62,12.11,13.45,7.72,11.9467,11209.426,0.688706
207,Kunkeliella retamoides A. Santos,3,3,10,14.05,14.33,14.5,17.53,10.46,14.2933,16045.6356,0.651891
207,Kunkeliella retamoides A. Santos,3,2,10,8.64,8.18,8.26,6.32,3.3,8.36,5489.1163,0.60119
207,Kunkeliella retamoides A. Santos,3,,,,,,,,,,
208,Kunkeliella subsucculenta Kämmer,,,,,,,,,,,
209,Laphangium teydeum Wildpret & Greuter,1,1,4,2.81,2.32,1.8,0.19,0.07,2.31,167.6385,0.417565
209,Laphangium teydeum Wildpret & Greuter,1,,,,,,,,,,
210,Launaea arborescens (Batt.) Murb.,3,3,10,12.73,13.44,11.28,13,6.09,12.4833,12239.1432,0.497584
210,Launaea arborescens (Batt.) Murb.,3,1,10,5.91,5.85,6.14,3.4,1.39,5.9667,2796.1047,0.49712
210,Launaea arborescens (Batt.) Murb.,3,2,10,15.38,12.53,13.22,13.68,6.62,13.71,14762.6659,0.448428
210,Launaea arborescens (Batt.) Murb.,3,,,,,,,,,,
211,"Laurus novocanariensis Rivas-Mart., Lousa, Fern. Prieto, E. Días, J.C. Costa & C. Aguiar",10*,,,,,,,,,,0.535495
211,"Laurus novocanariensis Rivas-Mart., Lousa, Fern. Prieto, E. Días, J.C. Costa & C. Aguiar",10*,,,,,,,,,,
212,Lavandula buchii Webb,2,,10,5.16,5.13,4.58,,1,4.9567,1929.609,0.51824
212,Lavandula buchii Webb,2,3,10,8.35,7.88,8.32,5.25,1.99,8.1833,5259.5715,0.378358
212,Lavandula buchii Webb,2,2,10,11.95,13.13,11.2,9.87,3.63,12.0933,11486.3469,0.316027
212,Lavandula buchii Webb,2,,,,,,,,,,
213,Lavandula canariensis Mill.,3,3,10,6.53,6,6.51,4.53,2.44,6.3467,3163.5978,0.771274
213,Lavandula canariensis Mill.,3,,10,7.97,8.25,6.93,,2.34,7.7167,4676.8061,0.500341
213,Lavandula canariensis Mill.,3,2,8.7,12.01,11.22,10.64,8.61,4.15,11.29,8709.5761,0.476487
213,Lavandula canariensis Mill.,3,4,10,4.13,2.79,2.35,1.17,0.35,3.09,749.906,0.466725
213,Lavandula canariensis Mill.,3,,,,,,,,,,
214,Lavandula minutolii Bolle,3,2,9.27,5.6,7.14,8.61,4.37,2.21,7.1167,3687.4222,0.599335
214,Lavandula minutolii Bolle,3,4,10,6.94,6.3,5.13,3.56,1.73,6.1233,2944.867,0.587463
214,Lavandula minutolii Bolle,3,3,7.11,4.3,4.22,4.63,1.18,0.57,4.3833,1072.9228,0.531259
214,Lavandula minutolii Bolle,3,,,,,,,,,,
215,Lavatera acerifolia Cav.,3,3,10,24.08,24.77,28.26,64.01,41.64,25.7033,51888.2207,0.802494
215,Lavatera acerifolia Cav.,3,1,10,49.68,42.28,40.97,201.04,123.41,44.31,154203.1983,0.800308
215,Lavatera acerifolia Cav.,3,2,10,16.69,17.02,19.76,26.01,15.15,17.8233,24949.8386,0.607218
215,Lavatera acerifolia Cav.,3,,,,,,,,,,
216,Limonium arborescens (Brouss.) Kuntze,1,1,10,15.04,12.94,13.63,17.75,10,13.87,15109.2464,0.661846
216,Limonium arborescens (Brouss.) Kuntze,1,,,,,,,,,,
217,Limonium fruticans (Webb) Kuntze,,,,,,,,,,,
218,Limonium imbricatum (Webb ex Girard) C. F. Hubb.,,,,,,,,,,,
219,Limonium macrophyllum (Brouss.) Kuntze,2,1,10,27.31,30.76,32,70.89,34.58,30.0233,70795.8332,0.488447
219,Limonium macrophyllum (Brouss.) Kuntze,2,2,10,24.43,25.19,25.46,48.02,20.61,25.0267,49192.1608,0.418969
219,Limonium macrophyllum (Brouss.) Kuntze,2,,,,,,,,,,
220,Limonium pectinatum (Aiton) Kuntze,2,3,5.4,4.59,5.14,8.23,165,1.08,5.9867,1520.0357,0.71051
220,Limonium pectinatum (Aiton) Kuntze,2,2,5.2,4.22,5.78,5.03,1.19,0.68,5.01,1025.1058,0.663346
220,Limonium pectinatum (Aiton) Kuntze,2,,10,2.44,2.14,1.96,0.38,0.19,2.18,373.2526,0.509039
220,Limonium pectinatum (Aiton) Kuntze,2,,,,,,,,,,
221,Limonium perezii (Stapf) C. F. Hubb.,,,,,,,,,,,
222,Limonium spectabile (Svent.) G. Kunkel & Sunding,,,,,,,,,,,
223,Lobularia canariensis (DC.) L. Borgen ,4,4,5.8,7.54,5.26,4.27,1.91,1.24,5.69,1474.8315,0.840774
223,Lobularia canariensis (DC.) L. Borgen ,4,3,5.27,5.88,4.01,2.15,1.23,0.46,4.0133,666.6701,0.689996
223,Lobularia canariensis (DC.) L. Borgen ,4,2,3.6,7.16,6.96,6.68,1.58,0.92,6.9333,1359.1786,0.676879
223,Lobularia canariensis (DC.) L. Borgen ,4,5,3.94,2.16,2.22,2.28,,0.09,2.22,152.5078,0.590134
223,Lobularia canariensis (DC.) L. Borgen ,4,,,,,,,,,,
224,Lolium canariense Steud.,1,1,10,0.81,0.71,1.04,0.05,0.04,0.8533,57.1909,0.716897
224,Lolium canariense Steud.,1,,,,,,,,,,
225,"Lolium edwardii H. Scholz, Stierstorfer & v.Gaisberg",,,,,,,,,,,
226,Lolium lowei Menezes,,,,,,,,,,,
227,Lotus berthelotii Masf.,,,,,,,,,,,
446,Lotus berthelotii x maculatus (HYBRID),1,1,10,8.61,6.51,6.7,4.35,1.67,7.2733,4154.8645,0.401938
446,Lotus berthelotii x maculatus (HYBRID),1,,,,,,,,,,
228,Lotus campylocladus Webb & Berthel.,3,2,10,2.88,3.7,3.97,1.37,0.52,3.5167,971.2975,0.535366
228,Lotus campylocladus Webb & Berthel.,3,3,10,2.95,3.16,3.3,0.98,0.39,3.1367,772.7279,0.504705
228,Lotus campylocladus Webb & Berthel.,3,1,10,4.73,5.03,3.63,2.19,0.67,4.4633,1564.6187,0.428219
228,Lotus campylocladus Webb & Berthel.,3,,,,,,,,,,
229,Lotus dumetorum Webb ex R. P. Murray,3,2,10,8.45,8.38,8.24,6.58,2.46,8.3567,5484.7399,0.448517
229,Lotus dumetorum Webb ex R. P. Murray,3,1,10,8.33,8.31,7.8,5.37,2.24,8.1467,5212.5445,0.429733
229,Lotus dumetorum Webb ex R. P. Murray,3,3,10,3.86,3.88,3.8,1.27,0.39,3.8467,1162.1414,0.335587
229,Lotus dumetorum Webb ex R. P. Murray,3,,,,,,,,,,
230,Lotus glaucus Dryand. in Aiton,,,,,,,,,,,
231,Lotus maculatus Breitf.,1,2,9.5,4.25,6.56,6.36,2.45,1.05,5.7233,2444.0583,0.429613
231,Lotus maculatus Breitf.,1,,,,,,,,,,
232,Lotus mascaensis Burchard,1,1,3.57,3.05,3.32,2.51,0.33,0.18,2.96,245.664,0.732708
232,Lotus mascaensis Burchard,1,,,,,,,,,,
233,Lotus sessilifolius DC.,4,4,10,3.84,6.3,5.92,2.9,1.66,5.3533,2250.808,0.737513
233,Lotus sessilifolius DC.,4,1,10,5.45,5.49,5.52,2.78,1.39,5.4867,2364.3242,0.587906
233,Lotus sessilifolius DC.,4,2,9.2,2.95,3,4.12,0.94,0.46,3.3567,814.1307,0.56502
233,Lotus sessilifolius DC.,4,3,7.1,2.19,2.89,3.17,0.44,0.22,2.75,421.7097,0.521686
233,Lotus sessilifolius DC.,4,,,,,,,,,,