IDmaster,Species,total number of individual collected for stem. *indicates average already calculated,individual,stem length (cm) ,D1 (mm) ,D2 (mm) ,D3 (mm) ,Stem fresh mass (g),Stem dry mass (g),average D (mm). Formula =AVERAGE(F2:H2),Stem volume - 1 mm^3.  Formula =PI()*(K2*0.5)^2*(E2*10),Stem specific density (SSD) (mg/mm^3). 
1,Adenocarpus foliolosus (Aiton) DC.,3,2,10,33.66,29.92,30.89,80.83,43.43,31.49,77881.6605,0.557641
1,Adenocarpus foliolosus (Aiton) DC.,3,3,10,,23.84,21.75,26.03,21.26,22.795,40810.233,0.520948
1,Adenocarpus foliolosus (Aiton) DC.,3,,,,,,,,,,
2,Adenocarpus viscosus (Willd.) Webb & Berthel.,3,4,10,21.35,21.14,21.85,38.92,19.37,21.4467,36125.1355,0.536192
2,Adenocarpus viscosus (Willd.) Webb & Berthel.,3,3,10,20.44,20.56,19.87,33.16,17.11,20.29,32333.5936,0.529171
2,Adenocarpus viscosus (Willd.) Webb & Berthel.,3,1,10,27.91,27.05,36.6,,31.23,30.52,73157.5141,0.426887
2,Adenocarpus viscosus (Willd.) Webb & Berthel.,3,,,,,,,,,,
3,Aeonium arboreum (L.) Webb & Berthel.,3,2,10,35.38,33.99,34.41,95.94,36.38,34.5933,93988.497,0.387069
3,Aeonium arboreum (L.) Webb & Berthel.,3,,10,24.01,22.85,22.88,45.6,16.15,23.2467,42443.5067,0.380506
3,Aeonium arboreum (L.) Webb & Berthel.,3,3,10,14.42,13.23,11.55,15.69,4.29,13.0667,13409.7137,0.319917
3,Aeonium arboreum (L.) Webb & Berthel.,3,,,,,,,,,,
4,Aeonium canariense (L.) Webb & Berthel.,,,,,,,,,,,
5,Aeonium ciliatum (Willd.) Webb & Berthel.,2,2,10,9.08,5.01,3.73,3.15,1.4,5.94,2771.1675,0.505202
5,Aeonium ciliatum (Willd.) Webb & Berthel.,2,,10,19.04,19.49,20.52,34.24,12.98,19.6833,30428.9647,0.426567
5,Aeonium ciliatum (Willd.) Webb & Berthel.,2,3,10,5.78,11.21,10.84,6.54,2.21,9.2767,6758.8652,0.326978
5,Aeonium ciliatum (Willd.) Webb & Berthel.,2,,,,,,,,,,
6,Aeonium cuneatum Webb & Berthel.,,,,,,,,,,,
7,Aeonium decorum Webb ex Bolle,,,,,,,,,,,
8,Aeonium haworthii (Salm-Dyck ex Webb & Berthel.) Webb & Berthel.,3,3,10,11.24,9.91,8.62,10.04,5,9.9233,7734.0156,0.646495
8,Aeonium haworthii (Salm-Dyck ex Webb & Berthel.) Webb & Berthel.,3,1,8,13.48,13.43,14.24,12.82,6.95,13.7167,11821.6212,0.587906
8,Aeonium haworthii (Salm-Dyck ex Webb & Berthel.) Webb & Berthel.,3,2,9.5,13.63,13.36,14.65,15.29,7.82,13.88,14374.4891,0.544019
8,Aeonium haworthii (Salm-Dyck ex Webb & Berthel.) Webb & Berthel.,3,,,,,,,,,,
9,Aeonium lindleyi Webb & Berthel.,2,3,10,7.57,7.67,5.05,4.99,1.79,6.7633,3592.6215,0.498243
9,Aeonium lindleyi Webb & Berthel.,2,2,9.4,10.33,7.53,4.83,4.84,1.85,7.5633,4223.225,0.438054
9,Aeonium lindleyi Webb & Berthel.,2,,,,,,,,,,
10,Aeonium pseudourbicum A. Bañares,3,2,10,25.8,27.59,30.53,70.3,25.23,27.9733,61457.9857,0.410524
10,Aeonium pseudourbicum A. Bañares,3,3,7.5,14.17,16,17.85,18.54,6.15,16.0067,15092.2137,0.407495
10,Aeonium pseudourbicum A. Bañares,3,1,10,22.54,21.85,20.18,38.33,12.2,21.5233,36383.8745,0.335313
10,Aeonium pseudourbicum A. Bañares,3,,,,,,,,,,
11,Aeonium sedifolium (Webb ex Bolle) Pit. & Proust,3,1,7.5,2.94,6.22,7.66,3.06,1.1,5.6067,1851.6573,0.594062
11,Aeonium sedifolium (Webb ex Bolle) Pit. & Proust,3,2,3.4,4.61,4.5,3.88,0.58,0.28,4.33,500.662,0.55926
11,Aeonium sedifolium (Webb ex Bolle) Pit. & Proust,3,3,10,4.49,4.55,5.95,2.02,1.01,4.9967,1960.8783,0.515075
11,Aeonium sedifolium (Webb ex Bolle) Pit. & Proust,3,,,,,,,,,,
12,Aeonium smithii (Sims) Webb & Berthel.,3,1,10,14.46,13.2,10.48,13.41,3.9,12.7133,12694.2998,0.307225
12,Aeonium smithii (Sims) Webb & Berthel.,3,3,10,13.5,13.62,14.47,18.84,4.47,13.8633,15094.7253,0.29613
12,Aeonium smithii (Sims) Webb & Berthel.,3,2,2.83,16.09,15.01,16.72,5.97,1.48,15.94,5647.4572,0.262065
12,Aeonium smithii (Sims) Webb & Berthel.,3,,,,,,,,,,
13,Aeonium spathulatum (Hornem.) Praeger,3,1,8.3,14.97,10.18,10.38,9.42,4.33,11.8433,9143.5718,0.473557
13,Aeonium spathulatum (Hornem.) Praeger,3,2,10,7.37,8.03,7.63,5.76,2.03,7.6767,4628.4465,0.438592
13,Aeonium spathulatum (Hornem.) Praeger,3,3,10,5.2,5.41,5.11,2.55,0.67,5.24,2156.5149,0.310686
13,Aeonium spathulatum (Hornem.) Praeger,3,,,,,,,,,,
14,Aeonium tabulaeforme (Haw.) Webb & Berthel.,,,2.16,12.51,12.05,11.63,,0.59,12.0633,2468.7567,0.238987
14,Aeonium tabulaeforme (Haw.) Webb & Berthel.,,,,,,,,,,,
15,Aeonium urbicum (C. Sm. ex Buch) Webb & Berthel.,3,1,10,32.29,30.25,28.28,,27.68,30.2733,71979.7555,0.384553
15,Aeonium urbicum (C. Sm. ex Buch) Webb & Berthel.,3,2,10,24.57,24.71,25.35,55.61,17.94,24.8767,48604.251,0.369104
15,Aeonium urbicum (C. Sm. ex Buch) Webb & Berthel.,3,3,10,17.63,14.66,14.8,21.58,7,15.6967,19351.0597,0.361737
15,Aeonium urbicum (C. Sm. ex Buch) Webb & Berthel.,3,,,,,,,,,,
16,Aeonium volkerii Hernández & A. Bañares,3,3,7.8,4.28,6.32,4.88,2.5,1.24,5.16,1631.1124,0.760217
16,Aeonium volkerii Hernández & A. Bañares,3,1,10,3.04,3.24,2.99,1.18,0.56,3.09,749.906,0.74676
16,Aeonium volkerii Hernández & A. Bañares,3,2,10,6.6,9.16,7.25,7.7,3.17,7.67,4620.411,0.686086
16,Aeonium volkerii Hernández & A. Bañares,3,,,,,,,,,,
17,Aichryson laxum (Haw.) Bramwell,3,3,10,7.21,8.03,6.86,5.02,0.65,7.3667,4262.1813,0.152504
17,Aichryson laxum (Haw.) Bramwell,3,1,10,4.81,5.56,5.28,2.8,0.25,5.2167,2137.352,0.116967
17,Aichryson laxum (Haw.) Bramwell,3,2,9.5,5,5.28,5.74,2.27,0.22,5.34,2127.6295,0.103401
17,Aichryson laxum (Haw.) Bramwell,3,,,,,,,,,,
18,Aichryson pachycaulon Bolle,3,1,10,10.04,10.29,9.29,,0.86,9.8733,7656.2742,0.112326
18,Aichryson pachycaulon Bolle,3,3,10,5.22,5.9,6.29,2.8,0.29,5.8033,2645.1172,0.109636
18,Aichryson pachycaulon Bolle,3,2,10,4.15,4.36,3.74,1.84,0.14,4.0833,1309.5424,0.106908
18,Aichryson pachycaulon Bolle,3,,,,,,,,,,
19,Aichryson parlatorei Bolle,5,5,5.5,1.24,1.65,1.5,0.17,0.03,1.4633,92.4994,0.324326
19,Aichryson parlatorei Bolle,5,4,5,1.66,2.51,1.56,0.21,0.03,1.91,143.2606,0.209409
19,Aichryson parlatorei Bolle,5,3,6,1.47,2.3,1.6,0.2,0.03,1.79,150.9897,0.198689
19,Aichryson parlatorei Bolle,5,1,7,1.66,1.95,1.52,0.25,0.03,1.71,160.7608,0.186613
19,Aichryson parlatorei Bolle,5,2,5.5,1.83,2.26,1.79,0.26,0.03,1.96,165.9452,0.180783
20,Aichryson porphyrogennetos Bolle,,,,,,,,,,,
21,Aichryson punctatum (C. Sm. ex Buch) Webb & Berthel.,3,2,4.8,1.81,1.6,2.07,,0.03,1.8267,125.791,0.238491
21,Aichryson punctatum (C. Sm. ex Buch) Webb & Berthel.,3,1,5.5,1.57,2.34,2.45,0.29,0.03,2.12,194.1441,0.154524
21,Aichryson punctatum (C. Sm. ex Buch) Webb & Berthel.,3,3,5,3.69,3.22,2.92,0.46,0.06,3.2767,421.6231,0.142307
21,Aichryson punctatum (C. Sm. ex Buch) Webb & Berthel.,3,,,,,,,,,,
22,Aichryson tortuosum (Aiton) Webb & Berthel.,,,,,,,,,,,
23,Aizoon canariense L.,3,3,10,5.28,3.64,3.07,2.14,0.57,3.9967,1254.5435,0.454349
23,Aizoon canariense L.,3,1,10,5.18,4.2,3.73,1.68,0.26,4.37,1499.867,0.173349
23,Aizoon canariense L.,3,2,10,4.49,3.78,3.68,1.66,0.2,3.9833,1246.1869,0.16049
23,Aizoon canariense L.,3,,,,,,,,,,
24,Allagopappus canariensis (Willd.) Greuter,3,3,10,9.17,9.85,9.75,8.91,5.09,9.59,7223.1577,0.704678
24,Allagopappus canariensis (Willd.) Greuter,3,1,10,8.49,7.85,5.76,5.66,2.85,7.3667,4262.1813,0.668672
24,Allagopappus canariensis (Willd.) Greuter,3,2,10,10.05,9.92,9.87,8.44,4.23,9.9467,7770.4292,0.544371
24,Allagopappus canariensis (Willd.) Greuter,3,,,,,,,,,,
435,Allium canariense,,,,,,,,,,,
25,Ammodaucus nanocarpus (Beltrán-Tej.) P. Pérez & A. Velasco,,,,,,,,,,,
26,Anagyris latifolia Brouss. ex Willd.,,,,,,,,,,,
27,Andryala pinnatifida Aiton,3,1,10,7.17,7.5,7.76,,1.52,7.4767,4390.4185,0.346208
27,Andryala pinnatifida Aiton,3,2,10,2.89,2.55,2.19,0.55,0.15,2.5433,508.0383,0.295253
27,Andryala pinnatifida Aiton,3,3,10,3.86,2.59,2.39,0.62,0.16,2.9467,681.949,0.234622
27,Andryala pinnatifida Aiton,3,,,,,,,,,,
28,Anisantha rubens (L.),3,1,10,0.7,0.64,0.53,0.03,0.03,0.6233,30.5162,0.884776
28,Anisantha rubens (L.),3,2,10,0.55,0.76,0.42,0.03,0.02,0.5767,26.118,0.765756
28,Anisantha rubens (L.),3,3,8.46,1.04,1.01,1.01,,0.03,1.02,69.129,0.433971
28,Anisantha rubens (L.),3,,,,,,,,,,
29,Apollonias barbujana (Cav.) Bornm.,10*,,,,,,,,,,0.725459
29,Apollonias barbujana (Cav.) Bornm.,10*,,,,,,,,,,
30,Arbutus canariensis Veill.,10*,,,,,,,,,,0.594729
30,Arbutus canariensis Veill.,10*,,,,,,,,,,
31,Argyranthemum adauctum (Link) Humphries,3,2,10,11.05,11.29,6.66,9.19,3.6,9.6667,7339.1095,0.490523
31,Argyranthemum adauctum (Link) Humphries,3,3,10,6.34,6.81,6.39,4.22,1.27,6.5133,3331.9348,0.38116
31,Argyranthemum adauctum (Link) Humphries,3,1,10,7.37,8.69,8.99,5.68,2.02,8.35,5475.9923,0.368883
31,Argyranthemum adauctum (Link) Humphries,3,,,,,,,,,,
32,Argyranthemum broussonetii (Pers.) Humphries,4,4,10,17.37,17.34,16.02,28.89,16.47,16.91,22458.3113,0.733359
32,Argyranthemum broussonetii (Pers.) Humphries,4,1,10,11.11,10.7,10.54,,5.36,10.7833,9132.6317,0.586906
32,Argyranthemum broussonetii (Pers.) Humphries,4,2,10,15.45,16.78,19.51,26.8,12.82,17.2467,23361.4729,0.548767
32,Argyranthemum broussonetii (Pers.) Humphries,4,3,10,11.23,11.35,12.79,11.61,5.31,11.79,10917.3565,0.486381
32,Argyranthemum broussonetii (Pers.) Humphries,4,,,,,,,,,,
33,Argyranthemum coronopifolium (Willd.) Humphries,2,3,10,7.75,7.72,7.36,5.89,2.89,7.61,4548.4057,0.635387
33,Argyranthemum coronopifolium (Willd.) Humphries,2,2,10,12.24,12.55,15.66,14.18,7.72,13.4833,14278.5604,0.540671
33,Argyranthemum coronopifolium (Willd.) Humphries,2,,10,9.21,8.56,7.71,5.76,2.76,8.4933,5665.604,0.48715
33,Argyranthemum coronopifolium (Willd.) Humphries,2,,,,,,,,,,
34,Argyranthemum foeniculaceum (Willd.) Webb ex Sch. Bip.,3,3,10,13.76,12.01,9.12,10.62,5.67,11.63,10623.0521,0.533745
34,Argyranthemum foeniculaceum (Willd.) Webb ex Sch. Bip.,3,1,9,6.95,9.41,4.93,3.51,1.56,7.0967,3559.9279,0.438211
34,Argyranthemum foeniculaceum (Willd.) Webb ex Sch. Bip.,3,2,10,6.93,6.19,6.29,3.77,1.15,6.47,3287.7474,0.349784
34,Argyranthemum foeniculaceum (Willd.) Webb ex Sch. Bip.,3,,,,,,,,,,
35,Argyranthemum frutescens (L.) Sch. Bip.,1,1,10,5.45,5.83,5.92,,0.73,5.7333,2581.691,0.28276
35,Argyranthemum frutescens (L.) Sch. Bip.,1,,,,,,,,,,
450,Argyranthemum frutescens sub. frutescens,,,10,12.29,11.41,10.36,,5.22,11.3533,10123.6392,0.515625
450,Argyranthemum frutescens sub. frutescens,,,,,,,,,,,
451,Argyranthemum frutescens sub. gracilescens,1,1,10,11.53,11.02,11.33,11.74,4.99,11.2933,10016.9193,0.498157
451,Argyranthemum frutescens sub. gracilescens,1,,,,,,,,,,
452,Argyranthemum frutescens sub. succulentum,3,2,4.72,7.08,8.76,5.45,2.61,0.93,7.0967,1866.9844,0.498129
452,Argyranthemum frutescens sub. succulentum,3,3,10,10.1,15.39,13.35,11.33,4.76,12.9467,13164.5438,0.361577
452,Argyranthemum frutescens sub. succulentum,3,1,10,8.35,7.02,7.63,4.47,1.53,7.6667,4616.3959,0.331427
452,Argyranthemum frutescens sub. succulentum,3,,,,,,,,,,
36,Argyranthemum gracile Sch. Bip.,3,2,3,9.42,11.21,10.74,,1.36,10.4567,2576.3073,0.527887
36,Argyranthemum gracile Sch. Bip.,3,3,10,9.76,16.13,11.62,12.45,6.37,12.5033,12278.3922,0.518798
36,Argyranthemum gracile Sch. Bip.,3,1,10,12.67,10.37,11.19,12.79,4.89,11.41,10224.9495,0.478242
36,Argyranthemum gracile Sch. Bip.,3,,,,,,,,,,
37,Argyranthemum lemsii Humphries,3,1,10,7.15,6.49,5.76,4.47,2.2,6.4667,3284.3606,0.669841
37,Argyranthemum lemsii Humphries,3,2,10,9.15,8.59,7.77,6.14,3.5,8.5033,5678.9532,0.616311
37,Argyranthemum lemsii Humphries,3,3,10,7.76,8.31,7.04,5.05,2.71,7.7033,4660.6583,0.581463
37,Argyranthemum lemsii Humphries,3,,,,,,,,,,
38,Argyranthemum sundingii L. Borgen,1,1,10,4.43,3.29,3.04,1.16,0.51,3.5867,1010.3502,0.504775
38,Argyranthemum sundingii L. Borgen,1,,,,,,,,,,
39,Argyranthemum tenerifae Humphries,3,1,10,5.79,5.66,5.59,2.97,1.39,5.68,2533.883,0.548565
39,Argyranthemum tenerifae Humphries,3,3,10,4.13,3.95,4.55,1.18,0.62,4.21,1392.0476,0.445387
39,Argyranthemum tenerifae Humphries,3,2,10,4.4,4.56,4.72,1.79,0.72,4.56,1633.1255,0.440872
39,Argyranthemum tenerifae Humphries,3,,,,,,,,,,
439,Argyranthemum vincentii,3,3,10,18.8,17.1,18.43,30.62,12.78,18.11,25758.8685,0.49614
439,Argyranthemum vincentii,3,2,10,17.28,17.3,18.48,25.61,11.86,17.6867,24568.6822,0.482728
439,Argyranthemum vincentii,3,1,10,17.49,20.16,21.24,26.51,11.46,19.63,30264.2894,0.378664
439,Argyranthemum vincentii,3,,,,,,,,,,
40,Arisarum simorrhinum Durieu in Duch.,,,2.76,2.81,2.48,0.27,0.68,0.04,1.8528,74.4125,0.537544
40,Arisarum simorrhinum Durieu in Duch.,,,10,3.57,2.64,2.44,0.84,0.05,2.8833,652.9495,0.076576
40,Arisarum simorrhinum Durieu in Duch.,,,10,3.14,2.67,2.24,0.7,0.04,2.6833,565.5085,0.070733
40,Arisarum simorrhinum Durieu in Duch.,,,10,3.62,3.18,2.64,0.84,0.05,3.1467,777.6629,0.064295
40,Arisarum simorrhinum Durieu in Duch.,,,10,2.62,2.99,3.15,0.86,0.04,2.92,669.6619,0.059732
41,Aristida adscensionis L.,3,3,3.6,1.11,1.53,0.8,0.07,0.03,1.1467,37.1764,0.780066
41,Aristida adscensionis L.,3,1,10,1.42,1.14,1.26,0.23,0.07,1.2733,127.3427,0.549698
41,Aristida adscensionis L.,3,2,3.4,0.95,1.01,1.1,0.03,0.01,1.02,27.7824,0.359941
41,Aristida adscensionis L.,3,,,,,,,,,,
42,Arrhenatherum calderae A. Hansen,3,3,10,1.25,1.65,1.46,0.25,0.06,1.4533,165.8901,0.361685
42,Arrhenatherum calderae A. Hansen,3,2,10,1.74,2.11,2.35,0.46,0.09,2.0667,335.4523,0.268294
42,Arrhenatherum calderae A. Hansen,3,1,10,2.15,2.02,1.29,0.32,0.06,1.82,260.1553,0.230631
42,Arrhenatherum calderae A. Hansen,3,,,,,,,,,,
43,Artemisia ramosa C. Sm. in Buch,3,1,10,4.93,5.02,5.17,2.67,1.5,5.04,1995.037,0.751866
43,Artemisia ramosa C. Sm. in Buch,3,2,10,5.62,4.26,3.74,2.16,1.14,4.54,1618.8313,0.704212
43,Artemisia ramosa C. Sm. in Buch,3,3,10,7.26,6.86,6.16,4.33,2.5,6.76,3589.0811,0.696557
43,Artemisia ramosa C. Sm. in Buch,3,,,,,,,,,,
44,Artemisia reptans C. Sm. in Buch,3,2,10,2.38,1.95,1.87,0.31,0.27,2.0667,335.4523,0.804883
44,Artemisia reptans C. Sm. in Buch,3,3,10,2.5,1.95,1.85,0.45,0.21,2.1,346.3606,0.606305
44,Artemisia reptans C. Sm. in Buch,3,1,10,5.16,5.03,7.4,1.83,1.6,5.8633,2700.095,0.592572
44,Artemisia reptans C. Sm. in Buch,3,,,,,,,,,,
45,Artemisia thuscula Cav.,4,3,10,9.09,8.98,8.96,5.57,3.95,9.01,6375.8701,0.619523
45,Artemisia thuscula Cav.,4,4,10,12.16,12.27,12.68,13.61,6.81,12.37,12017.9192,0.566654
45,Artemisia thuscula Cav.,4,2,10,12.32,11.79,13.57,,6.91,12.56,12389.9388,0.557711
45,Artemisia thuscula Cav.,4,1,10,23.52,24.19,25.11,,23.66,24.2733,46275.2444,0.511288
45,Artemisia thuscula Cav.,4,,,,,,,,,,
46,Arthrocnemum macrostachyum (Moric.) Moris in Moris & Delponte,,,,,,,,,,,
433,Aspalthium bituminosum,3,3,10,5.42,5.63,6.34,3.08,1.38,5.7967,2639.0434,0.522917
433,Aspalthium bituminosum,3,2,10,3.24,3.04,2.62,0.89,0.36,2.9667,691.2377,0.520805
433,Aspalthium bituminosum,3,1,10,15.15,20.18,21.96,,13.81,19.0967,28642.1105,0.482157
433,Aspalthium bituminosum,3,,,,,,,,,,
47,Asparagus arborescens Willd.,2,,10,10.63,10.82,11.23,,7.11,10.8933,9319.9046,0.762883
47,Asparagus arborescens Willd.,2,3,10,13.66,13.55,13.18,17.19,9.72,13.4633,14236.2327,0.682765
47,Asparagus arborescens Willd.,2,4,10,7.3,7.98,7.77,5.15,3.08,7.6833,4636.489,0.664296
47,Asparagus arborescens Willd.,2,,10,14.25,13.93,14.13,19.09,10.05,14.1033,15621.8845,0.643328
47,Asparagus arborescens Willd.,2,,,,,,,,,,
48,Asparagus fallax Svent.,1,1,10,6.17,6.3,6.44,3.48,1.39,6.3033,3120.5449,0.445435
48,Asparagus fallax Svent.,1,,,,,,,,,,
49,Asparagus pastorianus Webb & Berthel.,3,1,10,7.48,6.62,7.41,5.11,2.05,7.17,4037.6456,0.507722
49,Asparagus pastorianus Webb & Berthel.,3,2,10,7.24,7.13,6.68,4.43,1.68,7.0167,3866.7988,0.434468
49,Asparagus pastorianus Webb & Berthel.,3,3,10,7.44,7.63,7.54,5.49,1.92,7.5367,4461.1672,0.430381
49,Asparagus pastorianus Webb & Berthel.,3,,,,,,,,,,
50,Asparagus plocamoides Webb ex Svent.,3,1,10,12.5,12.78,13.09,14.02,7.12,12.79,12847.8652,0.554178
50,Asparagus plocamoides Webb ex Svent.,3,3,10,7.4,7.7,7.55,5.18,2.31,7.55,4476.9659,0.515974
50,Asparagus plocamoides Webb ex Svent.,3,2,10,9.27,9.31,9.02,7.21,3.25,9.2,6647.6101,0.488898
50,Asparagus plocamoides Webb ex Svent.,3,,,,,,,,,,
51,Asparagus scoparius Lowe,2,1,10,14.18,13.94,13.6,18.63,7.62,13.9067,15189.2375,0.501671
51,Asparagus scoparius Lowe,2,2,10,14.55,14.86,14.82,14.89,6.89,14.7433,17071.8761,0.403588
51,Asparagus scoparius Lowe,2,,,,,,,,,,
52,Asparagus umbellatus Link,3,3,10,5.72,5.79,5.8,3.75,2.16,5.77,2614.8183,0.826061
52,Asparagus umbellatus Link,3,2,10,5.27,5.14,5.17,2.35,1.23,5.1933,2118.2747,0.580661
52,Asparagus umbellatus Link,3,1,10,6.9,7.35,8.18,5.45,1.97,7.4767,4390.4185,0.448704
52,Asparagus umbellatus Link,3,,,,,,,,,,
53,Astragalus hamosus L.,,,,,,,,,,,
54,Astydamia latifolia (L. f.) Baill.,3,3,10,8.93,8.21,9.68,6.74,0.43,8.94,6277.1849,0.068502
54,Astydamia latifolia (L. f.) Baill.,3,2,10,13.63,13.57,15.31,16.27,1.01,14.17,15769.9233,0.064046
54,Astydamia latifolia (L. f.) Baill.,3,1,10,11.95,12.23,13.85,12.24,0.74,12.6767,12621.1818,0.058632
54,Astydamia latifolia (L. f.) Baill.,3,,,,,,,,,,
55,Atalanthus arboreus (DC.) Sw.,2,1,10,29.54,29.52,29.12,84.13,49.47,29.3933,67855.8915,0.729045
55,Atalanthus arboreus (DC.) Sw.,2,2,10,21.85,21.43,22.97,43.85,23,22.0833,38301.7959,0.600494
55,Atalanthus arboreus (DC.) Sw.,2,,,,,,,,,,
56,Atalanthus capillaris (Svent.) A. Hansen & Sunding,3,3,10,20.8,16.45,16.43,27.63,15.53,17.8933,25146.2012,0.617588
56,Atalanthus capillaris (Svent.) A. Hansen & Sunding,3,1,10,32.57,30.22,27.68,76.53,40.24,30.1567,71426.0367,0.56338
56,Atalanthus capillaris (Svent.) A. Hansen & Sunding,3,2,10,16.16,14.73,14.43,19.91,8.23,15.1067,17923.6797,0.459169
56,Atalanthus capillaris (Svent.) A. Hansen & Sunding,3,,,,,,,,,,
57,Atalanthus microcarpus (Boulos) A. Hansen & Sunding,2,2,10,25.61,25.6,25.47,57.49,32.57,25.56,51311.1302,0.634755
57,Atalanthus microcarpus (Boulos) A. Hansen & Sunding,2,1,10,21.13,20.81,19.68,35.72,13.75,20.54,33135.2888,0.414965
57,Atalanthus microcarpus (Boulos) A. Hansen & Sunding,2,,,,,,,,,,
58,Atalanthus pinnatus (L. f.) D. Don,3,2,10,12.8,12.02,11.75,13.31,4.73,12.19,11670.7104,0.405288
58,Atalanthus pinnatus (L. f.) D. Don,3,3,10,9.18,8.57,7.62,6.9,2.25,8.4567,5616.7915,0.400585
58,Atalanthus pinnatus (L. f.) D. Don,3,1,10,13.1,12.63,13.08,,4.27,12.9367,13144.2151,0.324858
58,Atalanthus pinnatus (L. f.) D. Don,3,,,,,,,,,,
59,Atalanthus regis-jubae (Pit.) A. Hansen & Sunding,,,,,,,,,,,
60,Atractylis preauxiana Sch. Bip.,,,,,,,,,,,
61,"Avena canariensis R. Baum, Rajhathy & D. R. Sampson",,,,,,,,,,,
62,Avena fatua L.,3,3,10,1.56,1.91,2.06,0.3,0.1,1.8433,266.8687,0.374716
62,Avena fatua L.,3,1,10,5.83,6,5.15,1.81,0.33,5.66,2516.0701,0.131157
62,Avena fatua L.,3,2,10,2,2.37,2.5,0.36,0.05,2.29,411.8707,0.121397
62,Avena fatua L.,3,,,,,,,,,,
63,Bencomia caudata (Aiton) Webb & Berthel.,1,1,10,31.91,30.21,27.75,,50.25,29.9567,70481.7787,0.71295
63,Bencomia caudata (Aiton) Webb & Berthel.,1,2,10,21.42,21.68,22.4,69.95,20.08,21.8333,37439.4941,0.536332
63,Bencomia caudata (Aiton) Webb & Berthel.,1,3,10,22.09,22.11,22.52,46.76,19.98,22.24,38847.1755,0.514323
63,Bencomia caudata (Aiton) Webb & Berthel.,1,4,10,32.37,34.44,36.28,100.34,44.26,34.3633,92742.8529,0.477234
63,Bencomia caudata (Aiton) Webb & Berthel.,1,,,,,,,,,,
64,Bencomia exstipulata Svent.,1,1,10,24.54,20.58,21.26,47.59,20.28,22.1267,38452.2598,0.527407
64,Bencomia exstipulata Svent.,1,,,,,,,,,,
65,Bosea yervamora L.,2,,10,49.64,49.47,47.98,234.07,104.45,49.03,188805.0768,0.553216
65,Bosea yervamora L.,2,2,10,30.17,30.7,32.04,79.62,37.22,30.97,75330.7501,0.494088
65,Bosea yervamora L.,2,3,10,30.81,30.67,30.1,71.12,31.93,30.5267,73189.4781,0.436265
65,Bosea yervamora L.,2,,,,,,,,,,
66,Brachypodium arbuscula Knoche,3,2,10,1.27,0.26,0.62,0.07,0.02,0.7167,40.3389,0.495799
66,Brachypodium arbuscula Knoche,3,1,10,1.07,1.16,1.17,0.09,0.05,1.1333,100.88,0.495638
66,Brachypodium arbuscula Knoche,3,3,10,1.28,1.2,1.05,0.14,0.04,1.1767,108.7419,0.367844
66,Brachypodium arbuscula Knoche,3,,,,,,,,,,
67,Brassica bourgeaui (Webb ex Christ) Kuntze,,,,,,,,,,,
68,Bryonia verrucosa Dryand.,,,10,5.06,5.59,5.97,,0.46,5.54,2410.5126,0.190831
68,Bryonia verrucosa Dryand.,,,,,,,,,,,
69,Bufonia paniculata F. Dubois ex Delarbre,3,3,10,0.78,0.53,0.78,0.07,0.02,0.6967,38.1189,0.524675
69,Bufonia paniculata F. Dubois ex Delarbre,3,2,10,0.3,0.39,0.39,0.03,0.01,0.36,10.1788,0.491219